# vtk DataFile Version 3.0
Solut Transport Simulation Results
ASCII
DATASET STRUCTURED_POINTS
DIMENSIONS 40 25 1
ORIGIN 0 0 0
SPACING 2.5641025641025643 2.0833333333333335 1.0
POINT_DATA 1000

SCALARS concentration_t0 double 1
LOOKUP_TABLE default
0.0
0.0
0.0
0.0
0.0
0.0
0.0
0.0
0.0
0.0
0.0
0.0
0.0
0.0
0.0
0.0
0.0
0.0
0.0
0.0
0.0
0.0
0.0
0.0
0.0
0.0
0.0
0.0
0.0
0.0
0.0
0.0
0.0
0.0
0.0
0.0
0.0
0.0
0.0
0.0
0.0
0.0
0.0
0.0
0.0
0.0
0.0
0.0
0.0
0.0
0.0
0.0
0.0
0.0
0.0
0.0
0.0
0.0
0.0
0.0
0.0
0.0
0.0
0.0
0.0
0.0
0.0
0.0
0.0
0.0
0.0
0.0
0.0
0.0
0.0
0.0
0.0
0.0
0.0
0.0
0.0
0.0
0.0
0.0
0.0
0.0
0.0
0.0
0.0
0.0
0.0
0.0
0.0
0.0
0.0
0.0
0.0
0.0
0.0
0.0
0.0
0.0
0.0
0.0
0.0
0.0
0.0
0.0
0.0
0.0
0.0
0.0
0.0
0.0
0.0
0.0
0.0
0.0
0.0
0.0
0.0
0.0
0.0
0.0
0.0
0.0
0.0
0.0
0.0
0.0
0.0
0.0
0.0
0.0
0.0
0.0
0.0
0.0
0.0
0.0
0.0
0.0
0.0
0.0
0.0
0.0
0.0
0.0
0.0
0.0
0.0
0.0
0.0
0.0
0.0
0.0
0.0
0.0
0.0
0.0
0.0
0.0
0.0
0.0
0.0
0.0
0.0
0.0
0.0
0.0
0.0
0.0
0.0
0.0
0.0
0.0
0.0
0.0
0.0
0.0
0.0
0.0
0.0
0.0
0.0
0.0
0.0
0.0
0.0
0.0
0.0
0.0
0.0
0.0
0.0
0.0
0.0
0.0
0.0
0.0
0.0
0.0
0.0
0.0
0.0
0.0
0.0
0.0
0.0
0.0
0.0
0.0
0.0
0.0
0.0
0.0
0.0
0.0
0.0
0.0
0.0
0.0
0.0
0.0
0.0
0.0
0.0
0.0
0.0
0.0
0.0
0.0
0.0
0.0
0.0
0.0
0.0
0.0
0.0
0.0
0.0
0.0
0.0
0.0
0.0
0.0
0.0
0.0
0.0
0.0
0.0
0.0
0.0
0.0
0.0
0.0
0.0
0.0
0.0
0.0
0.0
0.0
0.0
0.0
0.0
0.0
0.0
0.0
0.0
0.0
0.0
0.0
0.0
0.0
0.0
0.0
0.0
0.0
0.0
0.0
0.0
0.0
0.0
0.0
0.0
0.0
0.0
0.0
0.0
0.0
0.0
0.0
0.0
0.0
0.0
0.0
0.0
0.0
0.0
0.0
0.0
0.0
0.0
0.0
0.0
0.0
0.0
0.0
0.0
0.0
0.0
0.0
0.0
0.0
0.0
0.0
0.0
0.0
0.0
0.0
0.0
0.0
0.0
0.0
0.0
0.0
0.0
0.0
0.0
0.0
0.0
0.0
0.0
0.0
0.0
0.0
0.0
0.0
0.0
0.0
0.0
0.0
0.0
0.0
0.0
0.0
0.0
0.0
0.0
0.0
0.0
0.0
0.0
0.0
0.0
0.0
0.0
0.0
0.0
0.0
0.0
0.0
0.0
0.0
0.0
0.0
0.0
0.0
0.0
0.0
0.0
0.0
0.0
0.0
0.0
0.0
0.0
0.0
0.0
0.0
0.0
0.0
0.0
0.0
0.0
0.0
0.0
0.0
0.0
0.0
0.0
0.0
0.0
0.0
0.0
0.0
0.0
0.0
0.0
0.0
0.0
0.0
0.0
0.0
0.0
0.0
0.0
0.0
0.0
0.0
0.0
0.0
0.0
0.0
0.0
0.0
0.0
0.0
0.0
0.0
0.0
0.0
0.0
0.0
0.0
0.0
0.0
0.0
0.0
0.0
0.0
0.0
0.0
0.0
0.0
0.0
0.0
0.0
0.0
0.0
0.0
0.0
0.0
10.0
10.0
0.0
0.0
0.0
0.0
0.0
0.0
0.0
0.0
0.0
0.0
0.0
0.0
0.0
0.0
0.0
0.0
0.0
0.0
0.0
0.0
0.0
0.0
0.0
0.0
0.0
0.0
0.0
0.0
0.0
0.0
0.0
0.0
0.0
0.0
0.0
0.0
0.0
0.0
10.0
10.0
0.0
0.0
0.0
0.0
0.0
0.0
0.0
0.0
0.0
0.0
0.0
0.0
0.0
0.0
0.0
0.0
0.0
0.0
0.0
0.0
0.0
0.0
0.0
0.0
0.0
0.0
0.0
0.0
0.0
0.0
0.0
0.0
0.0
0.0
0.0
0.0
0.0
0.0
10.0
10.0
0.0
0.0
0.0
0.0
0.0
0.0
0.0
0.0
0.0
0.0
0.0
0.0
0.0
0.0
0.0
0.0
0.0
0.0
0.0
0.0
0.0
0.0
0.0
0.0
0.0
0.0
0.0
0.0
0.0
0.0
0.0
0.0
0.0
0.0
0.0
0.0
0.0
0.0
0.0
0.0
0.0
0.0
0.0
0.0
0.0
0.0
0.0
0.0
0.0
0.0
0.0
0.0
0.0
0.0
0.0
0.0
0.0
0.0
0.0
0.0
0.0
0.0
0.0
0.0
0.0
0.0
0.0
0.0
0.0
0.0
0.0
0.0
0.0
0.0
0.0
0.0
0.0
0.0
0.0
0.0
0.0
0.0
0.0
0.0
0.0
0.0
0.0
0.0
0.0
0.0
0.0
0.0
0.0
0.0
0.0
0.0
0.0
0.0
0.0
0.0
0.0
0.0
0.0
0.0
0.0
0.0
0.0
0.0
0.0
0.0
0.0
0.0
0.0
0.0
0.0
0.0
0.0
0.0
0.0
0.0
0.0
0.0
0.0
0.0
0.0
0.0
0.0
0.0
0.0
0.0
0.0
0.0
0.0
0.0
0.0
0.0
0.0
0.0
0.0
0.0
0.0
0.0
0.0
0.0
0.0
0.0
0.0
0.0
0.0
0.0
0.0
0.0
0.0
0.0
0.0
0.0
0.0
0.0
0.0
0.0
0.0
0.0
0.0
0.0
0.0
0.0
0.0
0.0
0.0
0.0
0.0
0.0
0.0
0.0
0.0
0.0
0.0
0.0
0.0
0.0
0.0
0.0
0.0
0.0
0.0
0.0
0.0
0.0
0.0
0.0
0.0
0.0
0.0
0.0
0.0
0.0
0.0
0.0
0.0
0.0
0.0
0.0
0.0
0.0
0.0
0.0
0.0
0.0
0.0
0.0
0.0
0.0
0.0
0.0
0.0
0.0
0.0
0.0
0.0
0.0
0.0
0.0
0.0
0.0
0.0
0.0
0.0
0.0
0.0
0.0
0.0
0.0
0.0
0.0
0.0
0.0
0.0
0.0
0.0
0.0
0.0
0.0
0.0
0.0
0.0
0.0
0.0
0.0
0.0
0.0
0.0
0.0
0.0
0.0
0.0
0.0
0.0
0.0
0.0
0.0
0.0
0.0
0.0
0.0
0.0
0.0
0.0
0.0
0.0
0.0
0.0
0.0
0.0
0.0
0.0
0.0
0.0
0.0
0.0
0.0
0.0
0.0
0.0
0.0
0.0
0.0
0.0
0.0
0.0
0.0
0.0
0.0
0.0
0.0
0.0
0.0
0.0
0.0
0.0
0.0
0.0
0.0
0.0
0.0
0.0
0.0
0.0
0.0
0.0
0.0
0.0
0.0
0.0
0.0
0.0
0.0
0.0
0.0
0.0
0.0
0.0
0.0
0.0
0.0
0.0
0.0
0.0
0.0
0.0
0.0
0.0
0.0
0.0
0.0
0.0
0.0
0.0
0.0
0.0
0.0
0.0
0.0
0.0
0.0
0.0
0.0
0.0
0.0
0.0
0.0
0.0
0.0
0.0
0.0
0.0
0.0
0.0
0.0
0.0
0.0
0.0
0.0
0.0
0.0
0.0
0.0
0.0
0.0
0.0
0.0
0.0
0.0
0.0
0.0
0.0
0.0
0.0
0.0
0.0
0.0
0.0
0.0
0.0
0.0
0.0
0.0
0.0
0.0
0.0
0.0
0.0
0.0
0.0
0.0
0.0
0.0
0.0
0.0
0.0
0.0
0.0
0.0
0.0
0.0
0.0
0.0
0.0
0.0
0.0
0.0
0.0
0.0
0.0
0.0
0.0
0.0
0.0
0.0
0.0
0.0
0.0
0.0
0.0
0.0
0.0
0.0
0.0
0.0
0.0
0.0
0.0
0.0
0.0
0.0
0.0
0.0
0.0
0.0
0.0
0.0
0.0
0.0
0.0
0.0
0.0
0.0
0.0
0.0
0.0
0.0
0.0
0.0
0.0
0.0
0.0
0.0
0.0
0.0
0.0
0.0
0.0
0.0
0.0
0.0
0.0
0.0
0.0
0.0
0.0
0.0
0.0
0.0
0.0
0.0
0.0

SCALARS concentration_t1 double 1
LOOKUP_TABLE default
0.0
0.0
0.0
0.0
0.0
0.0
0.0
0.0
0.0
0.0
0.0
0.0
0.0
0.0
0.0
0.0
0.0
0.0
0.0
0.0
0.0
0.0
0.0
0.0
0.0
0.0
0.0
0.0
0.0
0.0
0.0
0.0
0.0
0.0
0.0
0.0
0.0
0.0
0.0
0.0
0.0
6.77636998148526e-08
2.1124055709914146e-07
4.5810231896031513e-07
8.12073474195552e-07
1.2306658004550095e-06
1.6214375568629429e-06
1.871654133574317e-06
1.901259327395826e-06
1.7050169281510651e-06
1.3534181862132614e-06
9.53133095722659e-07
5.967196755662228e-07
3.3267877633453957e-07
1.6539027259840142e-07
7.339220331646365e-08
2.9086163039062882e-08
1.0295819006319877e-08
3.253842025541279e-09
9.172257977005192e-10
2.3025868935023055e-10
5.1360403599357996e-11
1.0147885170226008e-11
1.7689052544285465e-12
2.7061960936436276e-13
3.6095707565034903e-14
4.162004774654961e-15
4.1033327590452774e-16
3.4096596722446625e-17
2.3422167785315086e-18
1.2947139391639715e-19
5.534971111251898e-21
1.7174643254007124e-22
3.441733054158362e-24
3.343949930515822e-26
0.0
0.0
0.0
0.0
0.0
0.0
5.212666169473332e-07
1.6256465187536373e-06
3.530735732286615e-06
6.2801981671900575e-06
9.57432614138772e-06
1.2728058463206948e-05
1.4872296052927085e-05
1.534288945581455e-05
1.4019104373746088e-05
1.1374622432170072e-05
8.213628458882253e-06
5.2890284140708175e-06
3.042289144267466e-06
1.5653669131870224e-06
7.212434040432581e-07
2.9777880903369087e-07
1.1019732303029125e-07
3.654604210586653e-08
1.0854715619066443e-08
2.883968339012423e-09
6.841989798027944e-10
1.4458556438327694e-10
2.7127227715045795e-11
4.4999021484745875e-12
6.56447218719575e-13
8.364795238196027e-14
9.230547528213746e-15
8.723806346219481e-16
6.959874151844591e-17
4.597019222431514e-18
2.4467194646276096e-19
1.0084549536580858e-20
3.0206433461335604e-22
5.8502148779905226e-24
5.499514691786558e-26
0.0
0.0
0.0
0.0
0.0
3.4880575172512415e-06
1.0883859570037072e-05
2.36763448547033e-05
4.225645793426072e-05
6.479568032777398e-05
8.688508087275265e-05
0.00010271299056590005
0.00010753921856526887
0.00010003059179952509
8.287422249620183e-05
6.12885198368768e-05
4.0537268412024223e-05
2.402034408646063e-05
1.2769324585415734e-05
6.096817084632887e-06
2.616511848906096e-06
1.0097338412515744e-06
3.504013038246185e-07
1.0930097661361931e-07
3.061994869475885e-08
7.693172196772728e-09
1.730109403244561e-09
3.473496617621443e-10
6.204496074121596e-11
9.817733447581838e-12
1.3686986326217119e-12
1.6695740819640303e-13
1.7665128845314725e-14
1.603204807174916e-15
1.2299695206429983e-16
7.822768394647349e-18
4.014288171853587e-19
1.5971310798557802e-20
4.623123535604753e-22
8.662178799613437e-24
7.885753403668743e-26
0.0
0.0
0.0
0.0
2.037661197481371e-05
6.362060779358904e-05
0.0001386229683724257
0.0002482198595645344
0.00038271144740764
0.0005173417690659247
0.0006182717144473678
0.0006562813111935351
0.0006206843921052427
0.0005243242020277623
0.0003964679575552762
0.00026885678033981516
0.00016378140203640593
8.975483377347005e-05
4.429979746317421e-05
1.9709144656476414e-05
7.908367625243569e-06
2.862450179496284e-06
9.344065283687368e-07
2.749268231182254e-07
7.283204396208577e-08
1.7345039505029872e-08
3.7055531364606267e-09
7.081914424892009e-10
1.2065117191479458e-10
1.824154581291379e-11
2.4339939676354423e-12
2.8462327196105134e-13
2.89125240153221e-14
2.5227672161175748e-15
1.863297171654747e-16
1.1423453160250114e-17
5.657383781973421e-19
2.1747661173197614e-20
6.088957434235665e-22
1.1046335796129156e-23
9.746429227370307e-26
0.0
0.0
0.0
0.00010291255783187059
0.0003215314781779528
0.0007017252850680689
0.001260474058739067
0.0019534791135088084
0.0026606119888460842
0.0032119092584415422
0.0034530469372640827
0.003316376187959412
0.0028524139521536513
0.0022017205389169223
0.0015280014746298174
0.0009550280845107605
0.0005383457764105625
0.0002740155078384648
0.00012605416755862006
5.244218796021288e-05
1.9737085885516243e-05
6.719769494053943e-06
2.068840122594235e-06
5.755199294307842e-07
1.4448559622967402e-07
3.267965597502925e-08
6.644108851758932e-09
1.2107161249638497e-09
1.970186303543381e-10
2.850044098883241e-11
3.644278590158686e-12
4.089911871836821e-13
3.992960328438768e-14
3.352996943467689e-15
2.3863650075558834e-16
1.411482015915051e-17
6.751745264205058e-19
2.509640535682542e-20
6.801350720946798e-22
1.1955251413467215e-23
1.0230360809422325e-25
0.0
0.0
0.00044398074030567187
0.0013880997906476282
0.0030342955248070925
0.005466634162467307
0.008512989880680092
0.011675415554607747
0.014226032315358808
0.015473979704563538
0.015072986225989488
0.013180539025301292
0.010368215067827756
0.007350406784040731
0.004704013321718849
0.0027214499736295836
0.0014250681017290324
0.0006760800194132729
0.00029080212708523437
0.00011345432580456993
4.015353291272134e-05
1.2889000327918673e-05
3.7503157896233535e-06
9.882407536073267e-07
2.355117078962934e-07
5.066622977999907e-08
9.816276614780606e-09
1.7076134133903095e-09
2.6571521176701413e-10
3.681352784345742e-11
4.5150494036794e-12
4.867151675431783e-13
4.5703578216583096e-14
3.696058561565822e-15
2.5364334289655323e-16
1.4482702783774598e-17
6.6951912878147975e-19
2.407665208101636e-20
6.319225805313155e-22
1.0768147174335298e-23
0.0
0.0
0.0016123539619224117
0.005044511482598683
0.011043869606896295
0.019952186268943243
0.031208108119523938
0.04307288646269773
0.05292606152475109
0.058181813970163566
0.0574037845529885
0.05095464697377876
0.040776401763306075
0.029471862904046613
0.019270361751385547
0.011415222545251928
0.0061338379360140905
0.0029928115187891446
0.0013269907407788284
0.0005349693314240493
0.00019614362331074446
6.54015582433866e-05
1.982520812404673e-05
5.459612658995149e-06
1.3644463180914678e-06
3.089993491101515e-07
6.328756913680183e-08
1.169393116358482e-08
1.9432823032588495e-09
2.8931904634777694e-10
3.84087522611965e-11
4.520270867427604e-12
4.682145544623455e-13
4.230108402486813e-14
3.2954227304261566e-15
2.1811476253536019e-16
1.2025392035628502e-17
5.373799662182228e-19
1.8700269353953944e-20
4.754215697630888e-22
0.0
0.0
0.004842643277815409
0.015161098032948976
0.03323904763183846
0.06020184972850311
0.09453573867517949
0.13120995723473627
0.1624279468155239
0.18023426300485168
0.179843202299611
0.1617656709681104
0.1314323421051998
0.09663393713190424
0.06439891418149421
0.03895679735912879
0.021418938126653166
0.010714936358378786
0.0048812470296618615
0.0020262481230174517
0.0007667218789265331
0.0002644926724682112
8.316557373023546e-05
2.382420250698514e-05
6.212757927056484e-06
1.4730919431897013e-06
3.170783426235541e-07
6.1831203517459e-08
1.089527533942752e-08
1.7293262784338907e-09
2.4627845530427264e-10
3.131885317213173e-11
3.5355736026191274e-12
3.517480505622228e-13
3.056198717062768e-14
2.292550264081838e-15
1.462813804856729e-16
7.784022362227864e-18
3.3610828678891803e-19
1.1312586897124893e-20
0.0
0.0
0.011781250411173932
0.03690619261979093
0.0810131701309675
0.14704635249815973
0.23168146769308876
0.323084439082004
0.4024635784268853
0.4501070873409165
0.45341563909292065
0.4124096343271829
0.339391524088481
0.2531637041527608
0.17145233453610512
0.10557704139796897
0.059189979822877145
0.030245992130169562
0.014100354827503615
0.0060012737265494245
0.002333015011456868
0.0008286221545221665
0.00026887638058252093
7.968532850331355e-05
2.1556452079591435e-05
5.31805460245297e-06
1.1949615321809696e-06
2.441504028548283e-07
4.526317361060724e-08
7.594054506669006e-09
1.1493119361628498e-09
1.5628556705103877e-10
1.900279684782239e-11
2.0538234883830656e-12
1.9587818657238978e-13
1.6335649637908658e-14
1.1776478549091446e-15
7.230408016780938e-17
3.706691217561851e-18
1.5434280335004426e-19
0.0
0.0
0.022688684923684706
0.0711090986829078
0.15624458075731623
0.28407330024297656
0.44872754033775447
0.6280279031316366
0.7860740326962198
0.8844161397056547
0.8973984954505143
0.8232204018488133
0.6841328099963542
0.5160002559937716
0.3538047115456254
0.22086850452369539
0.12570240851550923
0.06529828135341073
0.030991077328768105
0.013449027004620116
0.005339683780103573
0.0019402841108633211
0.0006453461379062149
0.00019644536054190602
5.470673399159664e-05
1.3928143305140569e-05
3.2386690699929364e-06
6.868758295770942e-07
1.3264096597712705e-07
2.3271458976374035e-08
3.699598662200462e-09
5.311912373182941e-10
6.860946852590064e-11
7.933226132942642e-12
8.163507667752778e-13
7.421629150648324e-14
5.907116589632863e-15
4.0693012191517734e-16
2.3905007681096298e-17
1.1736269389049589e-18
0.0
0.0
0.03385477391561282
0.10613714430213521
0.2333523474202544
0.42470612364542065
0.6719373185801312
0.942521053398558
1.1831729803290454
1.3360967141574787
1.3617453040111585
1.255721155742791
1.0498412827227972
0.797225797316211
0.5507940601048067
0.3467417044533448
0.1991703090165149
0.1045121682978584
0.05015091574210184
0.022025484066307402
0.008859017607411241
0.0032647328266758365
0.001102567251292056
0.0003412330775973539
9.675489729527357e-05
2.51214500852954e-05
5.9678607108753205e-06
1.2957299339415466e-06
2.567469798686824e-07
4.6344757014811854e-08
7.603676218186842e-09
1.130792745813816e-09
1.5192720488826775e-10
1.83669477618079e-11
1.9882751822083816e-12
1.915962672318909e-13
1.6316258760501588e-14
1.2169392906002714e-15
7.859557390664132e-17
4.328986429578731e-18
0.0
0.0
0.0386648816563692
0.12122844466565476
0.2665818026314575
0.4853385904194448
0.7682369394698346
1.078330290601934
1.3548629184521925
1.5316779100970261
1.563165924048265
1.4437049861837288
1.2091479575590771
0.920025191969916
0.6370294367240966
0.40198951054799303
0.23150230195015908
0.12181490577822458
0.05862636695421286
0.025828210484646105
0.010422677021535955
0.0038541744700932423
0.0013062844732715127
0.00040577363879450265
0.00011549062717778043
3.0101475973154982e-05
7.178652496257772e-06
1.5646274759260006e-06
3.1119933597637954e-07
5.637701972298433e-08
9.280742885944462e-09
1.3843207538323392e-09
1.8644698465033276e-10
2.25794332027974e-11
2.446234347975526e-12
2.3562365508705307e-13
2.002507306261164e-14
1.487535192227807e-15
9.544075591631141e-17
5.205694336259747e-18
0.0
0.0
0.03385477391561282
0.10613714430213521
0.2333523474202544
0.42470612364542065
0.6719373185801312
0.942521053398558
1.1831729803290454
1.3360967141574787
1.3617453040111585
1.255721155742791
1.0498412827227972
0.797225797316211
0.5507940601048067
0.3467417044533448
0.1991703090165149
0.1045121682978584
0.05015091574210184
0.022025484066307402
0.008859017607411241
0.0032647328266758365
0.001102567251292056
0.0003412330775973539
9.675489729527357e-05
2.51214500852954e-05
5.9678607108753205e-06
1.2957299339415466e-06
2.567469798686824e-07
4.6344757014811854e-08
7.603676218186842e-09
1.130792745813816e-09
1.5192720488826775e-10
1.83669477618079e-11
1.9882751822083816e-12
1.915962672318909e-13
1.6316258760501588e-14
1.2169392906002714e-15
7.859557390664132e-17
4.328986429578731e-18
0.0
0.0
0.022688684923684706
0.0711090986829078
0.15624458075731623
0.28407330024297656
0.44872754033775447
0.6280279031316366
0.7860740326962198
0.8844161397056547
0.8973984954505143
0.8232204018488133
0.6841328099963542
0.5160002559937716
0.3538047115456254
0.22086850452369539
0.12570240851550923
0.06529828135341073
0.030991077328768105
0.013449027004620116
0.005339683780103573
0.0019402841108633211
0.0006453461379062149
0.00019644536054190602
5.470673399159664e-05
1.3928143305140569e-05
3.2386690699929364e-06
6.868758295770942e-07
1.3264096597712705e-07
2.3271458976374035e-08
3.699598662200462e-09
5.311912373182941e-10
6.860946852590064e-11
7.933226132942642e-12
8.163507667752778e-13
7.421629150648324e-14
5.907116589632863e-15
4.0693012191517734e-16
2.3905007681096298e-17
1.1736269389049589e-18
0.0
0.0
0.011781250411173932
0.03690619261979093
0.0810131701309675
0.14704635249815973
0.23168146769308876
0.323084439082004
0.4024635784268853
0.4501070873409165
0.45341563909292065
0.4124096343271829
0.339391524088481
0.2531637041527608
0.17145233453610512
0.10557704139796897
0.059189979822877145
0.030245992130169562
0.014100354827503615
0.0060012737265494245
0.002333015011456868
0.0008286221545221665
0.00026887638058252093
7.968532850331355e-05
2.1556452079591435e-05
5.31805460245297e-06
1.1949615321809696e-06
2.441504028548283e-07
4.526317361060724e-08
7.594054506669006e-09
1.1493119361628498e-09
1.5628556705103877e-10
1.900279684782239e-11
2.0538234883830656e-12
1.9587818657238978e-13
1.6335649637908658e-14
1.1776478549091446e-15
7.230408016780938e-17
3.706691217561851e-18
1.5434280335004426e-19
0.0
0.0
0.004842643277815409
0.015161098032948976
0.03323904763183846
0.06020184972850311
0.09453573867517949
0.13120995723473627
0.1624279468155239
0.18023426300485168
0.179843202299611
0.1617656709681104
0.1314323421051998
0.09663393713190424
0.06439891418149421
0.03895679735912879
0.021418938126653166
0.010714936358378786
0.0048812470296618615
0.0020262481230174517
0.0007667218789265331
0.0002644926724682112
8.316557373023546e-05
2.382420250698514e-05
6.212757927056484e-06
1.4730919431897013e-06
3.170783426235541e-07
6.1831203517459e-08
1.089527533942752e-08
1.7293262784338907e-09
2.4627845530427264e-10
3.131885317213173e-11
3.5355736026191274e-12
3.517480505622228e-13
3.056198717062768e-14
2.292550264081838e-15
1.462813804856729e-16
7.784022362227864e-18
3.3610828678891803e-19
1.1312586897124893e-20
0.0
0.0
0.0016123539619224117
0.005044511482598683
0.011043869606896295
0.019952186268943243
0.031208108119523938
0.04307288646269773
0.05292606152475109
0.058181813970163566
0.0574037845529885
0.05095464697377876
0.040776401763306075
0.029471862904046613
0.019270361751385547
0.011415222545251928
0.0061338379360140905
0.0029928115187891446
0.0013269907407788284
0.0005349693314240493
0.00019614362331074446
6.54015582433866e-05
1.982520812404673e-05
5.459612658995149e-06
1.3644463180914678e-06
3.089993491101515e-07
6.328756913680183e-08
1.169393116358482e-08
1.9432823032588495e-09
2.8931904634777694e-10
3.84087522611965e-11
4.520270867427604e-12
4.682145544623455e-13
4.230108402486813e-14
3.2954227304261566e-15
2.1811476253536019e-16
1.2025392035628502e-17
5.373799662182228e-19
1.8700269353953944e-20
4.754215697630888e-22
0.0
0.0
0.00044398074030567187
0.0013880997906476282
0.0030342955248070925
0.005466634162467307
0.008512989880680092
0.011675415554607747
0.014226032315358808
0.015473979704563538
0.015072986225989488
0.013180539025301292
0.010368215067827756
0.007350406784040731
0.004704013321718849
0.0027214499736295836
0.0014250681017290324
0.0006760800194132729
0.00029080212708523437
0.00011345432580456993
4.015353291272134e-05
1.2889000327918673e-05
3.7503157896233535e-06
9.882407536073267e-07
2.355117078962934e-07
5.066622977999907e-08
9.816276614780606e-09
1.7076134133903095e-09
2.6571521176701413e-10
3.681352784345742e-11
4.5150494036794e-12
4.867151675431783e-13
4.5703578216583096e-14
3.696058561565822e-15
2.5364334289655323e-16
1.4482702783774598e-17
6.6951912878147975e-19
2.407665208101636e-20
6.319225805313155e-22
1.0768147174335298e-23
0.0
0.0
0.00010291255783187059
0.0003215314781779528
0.0007017252850680689
0.001260474058739067
0.0019534791135088084
0.0026606119888460842
0.0032119092584415422
0.0034530469372640827
0.003316376187959412
0.0028524139521536513
0.0022017205389169223
0.0015280014746298174
0.0009550280845107605
0.0005383457764105625
0.0002740155078384648
0.00012605416755862006
5.244218796021288e-05
1.9737085885516243e-05
6.719769494053943e-06
2.068840122594235e-06
5.755199294307842e-07
1.4448559622967402e-07
3.267965597502925e-08
6.644108851758932e-09
1.2107161249638497e-09
1.970186303543381e-10
2.850044098883241e-11
3.644278590158686e-12
4.089911871836821e-13
3.992960328438768e-14
3.352996943467689e-15
2.3863650075558834e-16
1.411482015915051e-17
6.751745264205058e-19
2.509640535682542e-20
6.801350720946798e-22
1.1955251413467215e-23
1.0230360809422325e-25
0.0
0.0
2.037661197481371e-05
6.362060779358904e-05
0.0001386229683724257
0.0002482198595645344
0.00038271144740764
0.0005173417690659247
0.0006182717144473678
0.0006562813111935351
0.0006206843921052427
0.0005243242020277623
0.0003964679575552762
0.00026885678033981516
0.00016378140203640593
8.975483377347005e-05
4.429979746317421e-05
1.9709144656476414e-05
7.908367625243569e-06
2.862450179496284e-06
9.344065283687368e-07
2.749268231182254e-07
7.283204396208577e-08
1.7345039505029872e-08
3.7055531364606267e-09
7.081914424892009e-10
1.2065117191479458e-10
1.824154581291379e-11
2.4339939676354423e-12
2.8462327196105134e-13
2.89125240153221e-14
2.5227672161175748e-15
1.863297171654747e-16
1.1423453160250114e-17
5.657383781973421e-19
2.1747661173197614e-20
6.088957434235665e-22
1.1046335796129156e-23
9.746429227370307e-26
0.0
0.0
0.0
3.4880575172512415e-06
1.0883859570037072e-05
2.36763448547033e-05
4.225645793426072e-05
6.479568032777398e-05
8.688508087275265e-05
0.00010271299056590005
0.00010753921856526887
0.00010003059179952509
8.287422249620183e-05
6.12885198368768e-05
4.0537268412024223e-05
2.402034408646063e-05
1.2769324585415734e-05
6.096817084632887e-06
2.616511848906096e-06
1.0097338412515744e-06
3.504013038246185e-07
1.0930097661361931e-07
3.061994869475885e-08
7.693172196772728e-09
1.730109403244561e-09
3.473496617621443e-10
6.204496074121596e-11
9.817733447581838e-12
1.3686986326217119e-12
1.6695740819640303e-13
1.7665128845314725e-14
1.603204807174916e-15
1.2299695206429983e-16
7.822768394647349e-18
4.014288171853587e-19
1.5971310798557802e-20
4.623123535604753e-22
8.662178799613437e-24
7.885753403668743e-26
0.0
0.0
0.0
0.0
5.212666169473332e-07
1.6256465187536373e-06
3.530735732286615e-06
6.2801981671900575e-06
9.57432614138772e-06
1.2728058463206948e-05
1.4872296052927085e-05
1.534288945581455e-05
1.4019104373746088e-05
1.1374622432170072e-05
8.213628458882253e-06
5.2890284140708175e-06
3.042289144267466e-06
1.5653669131870224e-06
7.212434040432581e-07
2.9777880903369087e-07
1.1019732303029125e-07
3.654604210586653e-08
1.0854715619066443e-08
2.883968339012423e-09
6.841989798027944e-10
1.4458556438327694e-10
2.7127227715045795e-11
4.4999021484745875e-12
6.56447218719575e-13
8.364795238196027e-14
9.230547528213746e-15
8.723806346219481e-16
6.959874151844591e-17
4.597019222431514e-18
2.4467194646276096e-19
1.0084549536580858e-20
3.0206433461335604e-22
5.8502148779905226e-24
5.499514691786558e-26
0.0
0.0
0.0
0.0
0.0
6.77636998148526e-08
2.1124055709914146e-07
4.5810231896031513e-07
8.12073474195552e-07
1.2306658004550095e-06
1.6214375568629429e-06
1.871654133574317e-06
1.901259327395826e-06
1.7050169281510651e-06
1.3534181862132614e-06
9.53133095722659e-07
5.967196755662228e-07
3.3267877633453957e-07
1.6539027259840142e-07
7.339220331646365e-08
2.9086163039062882e-08
1.0295819006319877e-08
3.253842025541279e-09
9.172257977005192e-10
2.3025868935023055e-10
5.1360403599357996e-11
1.0147885170226008e-11
1.7689052544285465e-12
2.7061960936436276e-13
3.6095707565034903e-14
4.162004774654961e-15
4.1033327590452774e-16
3.4096596722446625e-17
2.3422167785315086e-18
1.2947139391639715e-19
5.534971111251898e-21
1.7174643254007124e-22
3.441733054158362e-24
3.343949930515822e-26
0.0
0.0
0.0
0.0
0.0
0.0
0.0
0.0
0.0
0.0
0.0
0.0
0.0
0.0
0.0
0.0
0.0
0.0
0.0
0.0
0.0
0.0
0.0
0.0
0.0
0.0
0.0
0.0
0.0
0.0
0.0
0.0
0.0
0.0
0.0
0.0
0.0
0.0
0.0
0.0
0.0
0.0
0.0
0.0
0.0

SCALARS concentration_t2 double 1
LOOKUP_TABLE default
0.0
0.0
0.0
0.0
0.0
0.0
0.0
0.0
0.0
0.0
0.0
0.0
0.0
0.0
0.0
0.0
0.0
0.0
0.0
0.0
0.0
0.0
0.0
0.0
0.0
0.0
0.0
0.0
0.0
0.0
0.0
0.0
0.0
0.0
0.0
0.0
0.0
0.0
0.0
0.0
0.0
1.0880289847393294e-06
3.5100285481675665e-06
8.118078863995427e-06
1.594740538670513e-05
2.8050118139338977e-05
4.521140980482108e-05
6.758852819092439e-05
9.437149188385557e-05
0.00012360454765602492
0.00015229685124483103
0.00017687412257207962
0.00019389794740196217
0.00020085742108014146
0.00019678094846003753
0.000182461317623824
0.00016022162316831748
0.00013331366638784495
0.00010516002719747755
7.867771804565027e-05
5.5855570745445425e-05
3.76418536282345e-05
2.408959205589689e-05
1.4645161041905691e-05
8.460682144710176e-06
4.646125242966712e-06
2.4258589447739493e-06
1.20456574871621e-06
5.689484102167334e-07
2.5566129922899483e-07
1.0931096922738169e-07
4.447439546125986e-08
1.7219801911097766e-08
6.344902110541037e-09
2.2247909193396436e-09
7.423194829991083e-10
2.3565399464532467e-10
7.112817426082001e-11
1.9954947111611185e-11
0.0
0.0
4.185246459239876e-06
1.3508629612204346e-05
3.126985222934358e-05
6.150259380731268e-05
0.0001083519257170335
0.00017499510401222272
0.000262249003650043
0.00036723235888752565
0.00048261211262923736
0.0005969384803214482
0.0006962970982909658
0.0007670366799710589
0.0007988542875571899
0.0007872739261984443
0.0007346909104673177
0.0006496433868509669
0.000544600971563799
0.0004330467756315414
0.000326774060375942
0.00023410263300410687
0.00015928993191628664
0.00010298155481045867
6.328110176730607e-05
3.697216609792579e-05
2.0544373716424674e-05
1.086041773624538e-05
5.46312697615384e-06
2.615587364910259e-06
1.192087952066053e-06
5.172753767650815e-07
2.1372622467919068e-07
8.409081057949911e-08
3.150719346472851e-08
1.1241906401233299e-08
3.819617804116398e-09
1.2356787453787438e-09
3.80356239793462e-10
1.0880314234841748e-10
0.0
0.0
1.3879249223835473e-05
4.4821810494374465e-05
0.00010384790277359236
0.0002045158297229232
0.000360917891740806
0.000584147339328873
0.000877670160505395
0.0012327779231885723
0.0016258559642050527
0.0020191734409432636
0.0023660525190672453
0.0026197577963734298
0.002743847500254034
0.0027208183170138113
0.0025561976790604195
0.0022767539501331213
0.001923561460412365
0.0015423545650581447
0.0011742318204727333
0.0008491894355816592
0.0005835983967783356
0.0003812841913459871
0.00023689950097415192
0.00014002463925400394
7.875944805725148e-05
4.216769085552815e-05
2.14953567872326e-05
1.043501423456224e-05
4.825112501953092e-06
2.125476763720651e-06
8.920594594922812e-07
3.567456630118603e-07
1.3594847595306765e-07
4.936825221609814e-08
1.7083186593137195e-08
5.632526908924981e-09
1.7682114903364692e-09
5.15726354384436e-10
0.0
0.0
4.14986572093832e-05
0.00013408477829972783
0.00031092997103482567
0.0006130923205438115
0.0010836996540929
0.0017575228154749682
0.00264711909733987
0.003728933423882114
0.00493447639512191
0.006151765319497424
0.0072398661739685
0.008054970494370945
0.008481617397290378
0.008459701958481919
0.00799850166181992
0.007173172816959208
0.0061052672872224404
0.004934108055135576
0.0037881438898124545
0.0027640625243444063
0.00191756822871495
0.0012653259879071323
0.0007944363920078677
0.00047475191792120826
0.00027012207983380024
0.0001463735973141739
7.555904835159952e-05
3.716471293304517e-05
1.7421372877991316e-05
7.784212588293959e-06
3.315792404168166e-06
1.3466216192161735e-06
5.214585968046386e-07
1.92541800065694e-07
6.77891025150702e-08
2.27561481729497e-08
7.27802232050111e-09
2.1620190658786253e-09
0.0
0.0
0.00011154591372068392
0.0003605831709703572
0.0008368290473359216
0.0016519463791821538
0.002924354357883619
0.0047515602225833295
0.007172893824178951
0.010131423032108627
0.01344862828468344
0.01682595956344543
0.01988156565350437
0.02221899211528284
0.023511613356226074
0.023577997904390077
0.022424071735073457
0.020238466772594006
0.0173435634292212
0.014119415459587288
0.010924868749840161
0.008037610269147047
0.00562506296388671
0.0037461525722684258
0.0023749736995410608
0.0014338205449086383
0.0008245753427109278
0.0004518471073578583
0.0002359897262830724
0.00011750009205174117
5.578503796701816e-05
2.5258635667214417e-05
1.0908868739714136e-05
4.494471104506445e-06
1.7666223761158826e-06
6.625179282901211e-07
2.3705404209651604e-07
8.092366596533054e-08
2.6335505503980252e-08
7.95815133958777e-09
0.0
0.0
0.00026792275505409675
0.0008664622200305059
0.0020123264076136135
0.003976578921639865
0.0070491482775079045
0.011473188531031532
0.017355581531340446
0.024573937597184858
0.03271227905102307
0.0410596782982049
0.04869315959430824
0.0546393617985171
0.05807809425176456
0.058529135664057486
0.05596322930880628
0.050801635626684834
0.043806593695593025
0.0359011756832882
0.027976230107638295
0.020738230764961573
0.014629702627931928
0.009825383603138635
0.006284529257556213
0.003829608004381718
0.002223992244774573
0.0012312273426956773
0.0006499607865104957
0.00032725527503450974
0.0001571924808464855
7.204525655924579e-05
3.151213661487983e-05
1.3155471746095352e-05
5.242457200433606e-06
1.9943116711313085e-06
7.242622543345563e-07
2.5109254282231067e-07
8.303360113241467e-08
2.5488945244673126e-08
0.0
0.0
0.0005713100834377717
0.0018483294086263091
0.004295468264787469
0.008496175098281216
0.015079166715474506
0.024580068160118748
0.03725068403605991
0.05285791539022273
0.07054008326147829
0.08879430963678925
0.10564295349418924
0.11897149979758555
0.12696342278742848
0.12850894427232062
0.12346002650460373
0.11265021159851285
0.09767730291035139
0.08052533217858476
0.06314707516371844
0.047124554326842524
0.03348072406978491
0.022655108731474746
0.01460567714871622
0.008974545095386352
0.0052575047005449915
0.0029373430905481677
0.001565519321731941
0.0007961614837992149
0.0003864398756533105
0.0001790557238956857
7.921281143508078e-05
3.346313057759671e-05
1.35005577161966e-05
5.20220642133377e-06
1.9146826135390187e-06
6.730963118555073e-07
2.2582063507532285e-07
7.030844501161347e-08
0.0
0.0
0.0010743512955560658
0.0034769414902297486
0.008084823825840349
0.016003971911397095
0.028433672968178333
0.046409014286204676
0.07044253539703525
0.10014178550505035
0.13392873670357158
0.16900034467084774
0.20162450767713178
0.2277637449930264
0.24389334653103528
0.24778607898751812
0.23902097925201993
0.21905477805532966
0.19084082695521223
0.15812980676254138
0.12467677430531715
0.09357915889532407
0.06689225788733114
0.04555616870875694
0.029570267627748552
0.018300076598574272