# vtk DataFile Version 3.0
Solut Transport Simulation Results
ASCII
DATASET STRUCTURED_POINTS
DIMENSIONS 30 20 1
ORIGIN 0 0 0
SPACING 3.4482758620689653 2.6315789473684212 1.0
POINT_DATA 600

SCALARS concentration_t0 double 1
LOOKUP_TABLE default
0.0
0.0
0.0
0.0
0.0
0.0
0.0
0.0
0.0
0.0
0.0
0.0
0.0
0.0
0.0
0.0
0.0
0.0
0.0
0.0
0.0
0.0
0.0
0.0
0.0
0.0
0.0
0.0
0.0
0.0
0.0
0.0
0.0
0.0
0.0
0.0
0.0
0.0
0.0
0.0
0.0
0.0
0.0
0.0
0.0
0.0
0.0
0.0
0.0
0.0
0.0
0.0
0.0
0.0
0.0
0.0
0.0
0.0
0.0
0.0
0.0
0.0
0.0
0.0
0.0
0.0
0.0
0.0
0.0
0.0
0.0
0.0
0.0
0.0
0.0
0.0
0.0
0.0
0.0
0.0
0.0
0.0
0.0
0.0
0.0
0.0
0.0
0.0
0.0
0.0
0.0
0.0
0.0
0.0
0.0
0.0
0.0
0.0
0.0
0.0
0.0
0.0
0.0
0.0
0.0
0.0
0.0
0.0
0.0
0.0
0.0
0.0
0.0
0.0
0.0
0.0
0.0
0.0
0.0
0.0
0.0
0.0
0.0
0.0
0.0
0.0
0.0
0.0
0.0
0.0
0.0
0.0
0.0
0.0
0.0
0.0
0.0
0.0
0.0
0.0
0.0
0.0
0.0
0.0
0.0
0.0
0.0
0.0
0.0
0.0
0.0
0.0
0.0
0.0
0.0
0.0
0.0
0.0
0.0
0.0
0.0
0.0
0.0
0.0
0.0
0.0
0.0
0.0
0.0
0.0
0.0
0.0
0.0
0.0
0.0
0.0
0.0
0.0
0.0
0.0
0.0
0.0
0.0
0.0
0.0
0.0
0.0
0.0
0.0
0.0
0.0
0.0
0.0
0.0
0.0
0.0
0.0
0.0
0.0
0.0
0.0
0.0
0.0
0.0
0.0
0.0
0.0
0.0
0.0
0.0
0.0
0.0
0.0
0.0
0.0
0.0
0.0
0.0
0.0
0.0
0.0
0.0
0.0
0.0
0.0
0.0
0.0
0.0
0.0
0.0
0.0
0.0
0.0
0.0
0.0
0.0
0.0
0.0
0.0
0.0
0.0
0.0
10.0
10.0
10.0
0.0
0.0
0.0
0.0
0.0
0.0
0.0
0.0
0.0
0.0
0.0
0.0
0.0
0.0
0.0
0.0
0.0
0.0
0.0
0.0
0.0
0.0
0.0
0.0
0.0
0.0
0.0
10.0
10.0
10.0
0.0
0.0
0.0
0.0
0.0
0.0
0.0
0.0
0.0
0.0
0.0
0.0
0.0
0.0
0.0
0.0
0.0
0.0
0.0
0.0
0.0
0.0
0.0
0.0
0.0
0.0
0.0
10.0
10.0
10.0
0.0
0.0
0.0
0.0
0.0
0.0
0.0
0.0
0.0
0.0
0.0
0.0
0.0
0.0
0.0
0.0
0.0
0.0
0.0
0.0
0.0
0.0
0.0
0.0
0.0
0.0
0.0
10.0
10.0
10.0
0.0
0.0
0.0
0.0
0.0
0.0
0.0
0.0
0.0
0.0
0.0
0.0
0.0
0.0
0.0
0.0
0.0
0.0
0.0
0.0
0.0
0.0
0.0
0.0
0.0
0.0
0.0
0.0
0.0
0.0
0.0
0.0
0.0
0.0
0.0
0.0
0.0
0.0
0.0
0.0
0.0
0.0
0.0
0.0
0.0
0.0
0.0
0.0
0.0
0.0
0.0
0.0
0.0
0.0
0.0
0.0
0.0
0.0
0.0
0.0
0.0
0.0
0.0
0.0
0.0
0.0
0.0
0.0
0.0
0.0
0.0
0.0
0.0
0.0
0.0
0.0
0.0
0.0
0.0
0.0
0.0
0.0
0.0
0.0
0.0
0.0
0.0
0.0
0.0
0.0
0.0
0.0
0.0
0.0
0.0
0.0
0.0
0.0
0.0
0.0
0.0
0.0
0.0
0.0
0.0
0.0
0.0
0.0
0.0
0.0
0.0
0.0
0.0
0.0
0.0
0.0
0.0
0.0
0.0
0.0
0.0
0.0
0.0
0.0
0.0
0.0
0.0
0.0
0.0
0.0
0.0
0.0
0.0
0.0
0.0
0.0
0.0
0.0
0.0
0.0
0.0
0.0
0.0
0.0
0.0
0.0
0.0
0.0
0.0
0.0
0.0
0.0
0.0
0.0
0.0
0.0
0.0
0.0
0.0
0.0
0.0
0.0
0.0
0.0
0.0
0.0
0.0
0.0
0.0
0.0
0.0
0.0
0.0
0.0
0.0
0.0
0.0
0.0
0.0
0.0
0.0
0.0
0.0
0.0
0.0
0.0
0.0
0.0
0.0
0.0
0.0
0.0
0.0
0.0
0.0
0.0
0.0
0.0
0.0
0.0
0.0
0.0
0.0
0.0
0.0
0.0
0.0
0.0
0.0
0.0
0.0
0.0
0.0
0.0
0.0
0.0
0.0
0.0
0.0
0.0
0.0
0.0
0.0
0.0
0.0
0.0
0.0
0.0
0.0
0.0
0.0
0.0
0.0
0.0
0.0
0.0
0.0
0.0
0.0
0.0
0.0
0.0
0.0
0.0
0.0
0.0
0.0
0.0
0.0
0.0
0.0
0.0
0.0
0.0
0.0
0.0
0.0
0.0
0.0
0.0
0.0
0.0
0.0
0.0
0.0

SCALARS concentration_t1 double 1
LOOKUP_TABLE default
0.0
0.0
0.0
0.0
0.0
0.0
0.0
0.0
0.0
0.0
0.0
0.0
0.0
0.0
0.0
0.0
0.0
0.0
0.0
0.0
0.0
0.0
0.0
0.0
0.0
0.0
0.0
0.0
0.0
0.0
0.0
4.2794922997866805e-11
3.066642396643785e-11
1.193995409637175e-10
1.0481181736743997e-10
2.3251440679587456e-11
1.3781810679854833e-11
1.907956630598492e-11
4.7811047494819796e-12
8.037175681913621e-13
5.717043905761009e-13
7.453629457554235e-14
7.234988235736168e-15
5.111397547569659e-16
2.035552225160422e-17
5.582474340327294e-19
1.05209076951705e-20
1.0515502151656118e-22
0.0
0.0
0.0
0.0
0.0
0.0
0.0
0.0
0.0
0.0
0.0
0.0
0.0
2.28231474923432e-09
5.651709441653679e-09
9.709352213698631e-09
7.159505634047041e-09
1.8415523764829438e-09
3.0801210168871373e-09
1.8199339090975685e-09
3.8134541718633284e-10
1.390026759686832e-10
5.1049997050631944e-11
8.452655077174326e-12
8.153031126112814e-13
6.679627440338925e-14
3.571376608253003e-15
1.422488023303713e-16
3.3591783313396067e-18
6.204690052512834e-20
4.946617963426283e-22
0.0
0.0
0.0
0.0
0.0
0.0
0.0
0.0
0.0
0.0
0.0
0.0
1.0451079186559722e-07
3.694019247790959e-07
4.6251299569047404e-07
5.191129943083086e-07
2.2531300387498682e-07
2.921974730277553e-07
1.199710190225822e-07
4.880808104174111e-08
1.6077840381581072e-08
3.941872200283252e-09
6.592892530558054e-10
5.871413578453626e-11
5.1443190562410615e-12
3.0428750099017874e-13
1.3980012998710915e-14
5.141129399634386e-16
1.2221159807344573e-17
2.1300504506937713e-19
2.373476409409153e-21
0.0
0.0
0.0
0.0
0.0
0.0
0.0
0.0
0.0
0.0
0.0
3.669979997494202e-06
1.4290541886282491e-05
1.6545560438322244e-05
2.0867062025982985e-05
1.5980479123547477e-05
1.5474576268700145e-05
7.510141981003742e-06
3.4458502459111726e-06
8.77284195763891e-07
2.1071975797112432e-07
2.8008169083254623e-08
3.8259608786303255e-09
3.4841310659064166e-10
3.619042261952109e-11
3.117715971081539e-12
1.288264273980278e-13
4.1536747394562345e-15
1.503175351857376e-16
2.1404058721035514e-18
1.9453627400102803e-20
0.0
0.0
0.0
0.0
0.0
0.0
0.0
0.0
0.0
0.0
0.00010128224837557152
0.00041014875571364356
0.0004800985580695551
0.0005022354426039979
0.0006246820173896276
0.0004491028065659908
0.0002468461393144006
9.905488954211915e-05
3.553474504693978e-05
7.335519139621609e-06
1.3202595190634105e-06
2.6676961332877745e-07
2.723934736858664e-08
3.788739401596846e-09
2.978289446717911e-10
1.766590152922477e-11
7.613607316171451e-13
3.119952924775196e-14
6.250227869773501e-16
1.138027830004917e-17
1.0906317904003585e-19
0.0
0.0
0.0
0.0
0.0
0.0
0.0
0.0
0.0
0.0028381245715850805
0.011653245409193191
0.013987603799137214
0.010686641505211043
0.015414732403395817
0.011653116236528203
0.006500172330253925
0.003368252878038741
0.0016110182273365115
0.0003586465063321484
6.498086599336489e-05
1.1472648821940535e-05
1.4031461792304765e-06
2.0498530017337667e-07
2.0922863421848094e-08
1.3301772400240089e-09
7.61027407359786e-11
3.2985807289120835e-12
1.0595982502590307e-13
2.7546413694492488e-15
4.1172784861206515e-17
3.969091319696749e-19
0.0
0.0
0.0
0.0
0.0
0.0
0.0
0.0
0.057047809615363945
0.19450332694724065
0.2538758942362027
0.2792927078506265
0.3305402749995909
0.28931739724860933
0.16852244992064058
0.0838905011631273
0.032602164609453796
0.009584422082617304
0.0020799483775275013
0.00034418584697178383
4.254350315798712e-05
5.322780394247807e-06
6.775909538693817e-07
5.15606574798779e-08
3.872761906583704e-09
2.009064703246255e-10
8.489414958680779e-12
2.494955422878482e-13
5.252600542080984e-15
7.513968545974008e-17
6.156442668931141e-19
0.0
0.0
0.0
0.0
0.0
0.0
0.0
0.6234735965680406
1.7959377009372073
3.4909631747115824
4.813557336641932
4.365472407752965
2.9358657106176738
1.7319856177816795
0.6679354952608179
0.2129410985980745
0.05951063194895892
0.013595516008392207
0.002370771563779366
0.0004749191405490215
6.0225181873493994e-05
7.3825965217353904e-06
8.548258666296166e-07
5.923442285906163e-08
4.295102585736696e-09
2.6908116964886845e-10
1.1039209634064523e-11
3.2760053641431716e-13
5.114359376258607e-15
7.439501272381925e-17
4.2848369753583874e-19
0.0
0.0
0.0
0.0
0.0
0.0
0.9394796918036467
2.816802238967319
4.9206724907665915
6.342839583782268
5.811052607997141
3.747111956463559
2.0326022365321985
0.862016591544317
0.31695757704332156
0.10270907055417496
0.025761780938643453
0.0049956890858343424
0.0008143275060366248
0.00012030719702318136
1.570685071984368e-05
1.3353625762064894e-06
9.423806629199568e-08
5.7751500856287314e-09
2.251329736411679e-10
7.572419736418336e-12
3.1196749021772835e-13
6.295952288102399e-15
6.920039769603553e-17
4.2600274426108756e-19
0.0
0.0
0.0
0.0
0.0
0.0
0.9415905563065988
2.9082421361343265
5.553173409514353
6.849865105002843
6.280468201668436
4.320492389786978
2.2999178576936368
1.149209475160406
0.3714556224164875
0.11177197422408221
0.026524782163572562
0.004550255881777843
0.0005672913395007845
7.444201661615782e-05
7.1522288037405485e-06
7.037775755990043e-07
4.2312914536378143e-08
2.302730000056944e-09
1.189128161505988e-10
5.211893795502699e-12
1.447627116613382e-13
3.3624148795155085e-15
3.9169522607233977e-17
2.0874655342202207e-19
0.0
0.0
0.0
0.0
0.0
0.0
0.9388653427672675
2.8546849843833666
5.264647664104418
6.4189258668926605
5.926978873038061
4.040089332470727
2.1272300559906294
0.9133310271446056
0.2935109877829362
0.08064547475768208
0.021795245553606502
0.00422908301121373
0.0006904868678921217
8.645713772194224e-05
1.0176824928726235e-05
7.353302283484098e-07
4.942021894819334e-08
3.1059344738383646e-09
1.4565356480628213e-10
6.14844415636506e-12
1.5929643819064747e-13
2.7386029415088726e-15
3.141817615087119e-17
1.9731084931171822e-19
0.0
0.0
0.0
0.0
0.0
0.0
0.3024695154362297
0.9579671866553093
1.6694154164343853
2.1459086760583728
1.7584213443619476
1.1132533952401937
0.6017380541930206
0.22679021509633462
0.07297397054894758
0.017629274145912876
0.003941569807589553
0.0007407974010927597
9.835046538929595e-05
1.1501392596934617e-05
1.2202371302728158e-06
1.108353246787304e-07
8.834433070622713e-09
4.030989835741347e-10
1.4944172152312217e-11
3.810986844403401e-13
7.719233466042517e-15
1.2384515202453111e-16
7.082080315712596e-19
0.0
0.0
0.0
0.0
0.0
0.0
0.0
0.05350970893697557
0.1607410911899906
0.3020352348765517
0.3517343322750825
0.3097266901914257
0.2030603191983782
0.10507141428300595
0.0466950765191993
0.013464719257336746
0.003607892093909656
0.0007469870718872223
0.00011096862555259648
1.2597974958211157e-05
1.2538500143768087e-06
1.1730779526592184e-07
7.637459881371716e-09
4.911891519176725e-10
2.028765427176865e-11
6.478175985875584e-13
1.4570192416499718e-14
2.1559511073414787e-16
1.4822692921944124e-18
0.0
0.0
0.0
0.0
0.0
0.0
0.0
0.0
0.005918375109950651
0.01851433452845032
0.04432244605941544
0.04629090216579913
0.04072451663910342
0.025033002178299405
0.010633533808740589
0.00468509923696263
0.0015197621979979566
0.000286651589243093
6.122799768815411e-05
1.1326943678527258e-05
1.102755004001257e-06
1.1152949746621422e-07
9.011865713313771e-09
4.4499018600523344e-10
2.1971416606833953e-11
7.379240772614053e-13
1.842502192999708e-14
2.1778850175371158e-16
1.4570355652884006e-18
0.0
0.0
0.0
0.0
0.0
0.0
0.0
0.0
0.0
0.0004730935538825173
0.001575798056548075
0.0032705879038916084
0.0040450600132522305
0.0037013324331354497
0.0020682459176074803
0.0008441118893476823
0.0003082851668691066
9.180862579105275e-05
1.910558888163393e-05
3.4975099049370568e-06
5.760775689677736e-07
6.121079374181418e-08
4.624158672091591e-09
2.953283967958568e-10
1.4068158410780357e-11
4.829562587142886e-13
9.90441901960668e-15
1.6684328745577482e-16
1.535638516808214e-18
0.0
0.0
0.0
0.0
0.0
0.0
0.0
0.0
0.0
0.0
2.3332110671017956e-05
8.414840163504074e-05
0.00019857500085437084
0.00023963485317853457
0.00024409515545132775
0.00011427369805689212
4.161073834490912e-05
1.3633725837592982e-05
3.3617412272795692e-06
5.907242167519068e-07
1.0280290342174251e-07
1.6273144015908433e-08
1.548654916948754e-09
9.96038807736552e-11
6.632921165245697e-12
2.606951574647442e-13
6.209385918257572e-15
1.0879365789053847e-16
8.603742312038653e-19
0.0
0.0
0.0
0.0
0.0
0.0
0.0
0.0
0.0
0.0
0.0
1.1165915169738666e-06
3.779591647170167e-06
8.72536644224057e-06
9.521181946470705e-06
1.076966763417866e-05
4.941924826061914e-06
2.086850029420905e-06
5.338168714942505e-07
1.1861607172336112e-07
2.0381383487984603e-08
2.842165162009414e-09
4.401792418631827e-10
3.256973465820962e-11
2.255539225496146e-12
1.2173955980518965e-13
3.7189852407484036e-15
5.919885114810046e-17
5.010101962126724e-19
0.0
0.0
0.0
0.0
0.0
0.0
0.0
0.0
0.0
0.0
0.0
0.0
4.69129664269234e-08
1.753275665228091e-07
3.1747118888798876e-07
3.73678766721521e-07
3.11804504128256e-07
1.5231220342174301e-07
7.09480316357385e-08
1.818150425520444e-08
3.2906535670908823e-09
4.634746614613465e-10
6.408791115894978e-11
6.370459756126749e-12
4.078457961010207e-13
2.5038820551083724e-14
9.901319080853873e-16
2.3157358594849852e-17
1.8371385456075988e-19
0.0
0.0
0.0
0.0
0.0
0.0
0.0
0.0
0.0
0.0
0.0
0.0
0.0
0.0
0.0
0.0
0.0
0.0
0.0
0.0
0.0
0.0
0.0
0.0
0.0
0.0
0.0
0.0
0.0
0.0
0.0
0.0
0.0
0.0
0.0
0.0
0.0
0.0
0.0
0.0
0.0
0.0

SCALARS concentration_t2 double 1
LOOKUP_TABLE default
0.0
0.0
0.0
0.0
0.0
0.0
0.0
0.0
0.0
0.0
0.0
0.0
0.0
0.0
0.0
0.0
0.0
0.0
0.0
0.0
0.0
0.0
0.0
0.0
0.0
0.0
0.0
0.0
0.0
0.0
0.0
1.87294390270827e-09
2.2371296457311128e-09
7.514863792302296e-09
1.046327565046368e-08
5.504804030188488e-09
4.765372474715983e-09
9.177507231481349e-09
5.5273786091245735e-09
2.7083415556866176e-09
4.397872070301537e-09
1.951007776887869e-09
7.51803415437682e-10
2.4038650563911177e-10
5.25907533230545e-11
1.0858606295993574e-11
2.230833019409088e-12
4.3436067414070885e-13
6.65656147662894e-14
9.855182497996888e-15
1.2309826776896529e-15
1.8505354187989806e-16
2.0340007743235633e-17
2.4673922962483033e-18
2.3470137603157675e-19
1.7818550999203285e-20
1.1378385126991741e-21
6.582041762589817e-23
3.673008981923316e-24
0.0
0.0
4.7653419815338584e-08
1.1726475286244008e-07
2.611969527993594e-07
2.92301025616632e-07
1.6888301942274692e-07
3.0722506428922794e-07
3.288596419030864e-07
1.587829199700882e-07
1.348855212298269e-07
1.2307837307731207e-07
5.913329341687223e-08
2.0328121098113673e-08
6.586693960615623e-09
1.6641049885647616e-09
3.772633988772197e-10
6.679627152812687e-11
1.2878027120187673e-11
2.100083881791089e-12
3.313850184676542e-13
5.2155267556903414e-14
7.616323914412482e-15
9.973565719958987e-16
1.1984090676336876e-16
1.1917692671041432e-17
9.4587581132383e-19
5.334745499630164e-20
4.1171891225122346e-21
2.724268907361124e-22
0.0
0.0
1.0095267014386388e-06
3.110329304396065e-06
5.690472750476539e-06
9.004760655035363e-06
7.357945597763527e-06
1.1464788904085325e-05
8.700252904514222e-06
6.697303138707587e-06
4.997787092385575e-06
2.9721996376803427e-06
1.3887245726499726e-06
4.0248838818094347e-07
1.2416938342335712e-07
3.0880803829822955e-08
6.7515048510438176e-09
1.420553745098748e-09
2.5897385247967254e-10
4.802844907288856e-11
1.0717693703427857e-11
2.0180077335087438e-12
3.1107757767706674e-13
3.5670579563504225e-14
5.8161900027140826e-15
5.027825441481661e-16
5.0468010637662454e-17
3.273410652448045e-18
1.9809784059243882e-19
1.476272746248196e-20
0.0
0.0
1.6757801830896428e-05
5.484054463690027e-05
9.178365425237297e-05
0.00016452700584643565
0.00018952128854721214
0.0002494206124393691
0.0002138577485186344
0.0001788391004293373
0.00010213812185250136
5.564789844935962e-05
2.060553420770749e-05
8.002242398088503e-06
2.426551354830319e-06
8.83696938211867e-07
3.004144969072148e-07
6.105933185327156e-08
1.1677755988115256e-08
2.9938351256688377e-09
4.642483767846879e-10
8.444017810932255e-11
1.4599326486867654e-11
2.802710545730514e-12
2.8548864619787306e-13
2.4706286631800368e-14
1.882494568549449e-15
1.8393671580045384e-16
1.5805791885865318e-17
1.2008644994874583e-18
0.0
0.0
0.00023082643163614108
0.0007574347992687816
0.001227651832015499
0.0019122449084084995
0.003017894014866833
0.003289923415102711
0.0029748260103618206
0.002232783285628081
0.0015055055389592217
0.0007276878282691139
0.0003386374039541442
0.00018008490111342496
5.5706883031636905e-05
2.4549548936555847e-05
7.192225343667812e-06
1.7655792916010608e-06
3.7045340518049304e-07
8.580464499422273e-08
1.3209990305236393e-08
2.5627960296738e-09
4.848868608551668e-10
7.356355692923907e-11
8.831344447339704e-12
7.778451520070634e-13
7.400691285939944e-14
7.261226293511609e-15
6.815272371769112e-16
3.8861134497158554e-17
0.0
0.0
0.003203195334712508
0.011000797264064478
0.01677962278511254
0.02018871617319964
0.034486809272084015
0.039317591144501264
0.03456727550953464
0.03278089427523423
0.02793720878608504
0.014301437947639996
0.006379495649169265
0.002829332449220176
0.0009735909204303032
0.0004055959204293674
0.0001320929356906795
3.214037499489238e-05
7.555931482115024e-06
1.5767430550281436e-06
3.006477093735544e-07
5.722380007201924e-08
9.126276582107657e-09
1.6821599317531115e-09
2.3263073253397245e-10
2.686595920668489e-11
2.4189780233583982e-12
2.0667624424884735e-13
1.4852479597880965e-14
1.0803149354956483e-15
0.0
0.0
0.03441027116517343
0.10528981320500161
0.17419623383004915
0.264953180389657
0.38789608698003963
0.462478950774294
0.4213102801195749
0.36415509532215407
0.26344356518254863
0.15649530903722958
0.07565330605383658
0.030914112832245107
0.010535773618377956
0.003684165715671613
0.0013311161147797656
0.00034151805289748833
9.307380335437786e-05
2.0310046378107118e-05
4.1537997774018175e-06
7.174109078099687e-07
1.140111128031102e-07
1.7401101704244008e-08
2.797904399423484e-09
4.121876648263166e-10
3.945390578709812e-11
4.134551346157775e-12
4.346656146058165e-13
2.8604015428780374e-14
0.0
0.0
0.21934633931838038
0.6296692579787037
1.3235122478393229
2.2092896180346284
2.720802363598556
2.6878200612448606
2.3857743850370094
1.6882018479695433
1.0509521250587337
0.5879868420069921
0.28660746644848734
0.12009777729728832
0.05416299867866793
0.018246959673626804
0.006123921593446305
0.0020067782546422035
0.0004781836128878547
0.00012339657281482995
3.0345891891530836e-05
5.926981927457057e-06
1.019499886488802e-06
1.2476209859187131e-07
1.9129199681631185e-08
2.2886816028600093e-09
2.637647458438346e-10
2.827667694641222e-11
2.202590003478622e-12
1.6548312910389475e-13
0.0
0.0
0.4337450075647188
1.2020840980721492
2.2244460380988795
3.3922536588243277
4.03498232221479
4.125973226924875
3.546569763575392
2.641995696617338
1.7495983189448634
1.0579286091714752
0.5531992920688746
0.2430292334543312
0.09652060920189934
0.03615397933448412
0.012644652759153328
0.003353124839418242
0.000802012160911906
0.00018246232739916368
3.147797674222452e-05
5.333816507368438e-06
1.1980051979901041e-06
1.8196733596051022e-07
2.2268523816659447e-08
2.8404806278993564e-09
4.085878472037272e-10
3.80215058416241e-11
4.606041009597786e-12
4.078662143562243e-13
0.0
0.0
0.4474671929145933
1.3626779360614651
2.805812322501549
4.067027569297295
4.8165739958325435
4.867334745695498
4.184399266330453
3.2663116412298128
2.0524682297355086
1.2058645215358048
0.6101211659162961
0.24913478848864434
0.0824096110810181
0.02859783508733018
0.008162061674910636
0.0024258415142758847
0.0005183678327315598
0.00010940117503701471
2.366923467956004e-05
4.905735395146239e-06
8.121451801082068e-07
1.386826790514561e-07
1.778211585363314e-08
2.0095572420262368e-09
2.7606733264708886e-10
2.862531749753892e-11
2.7043238773465815e-12
2.291412134482822e-13
0.0
0.0
0.44788932733247955
1.3489238831365462
2.6888992838022934
3.8631452376188644
4.629307122244661
4.658996916978735
3.962204808476735
2.910307175884463
1.8098880764775165
1.014119316713278
0.5521503717768381
0.24298463051650948
0.09562850794733717
0.031616742253016965
0.010147628317159417
0.002351650482654682
0.000538129885688055
0.00012370703677092054
2.4307088305350587e-05
4.836104895625684e-06
7.371709988001738e-07
9.748350643560049e-08
1.2260962300196147e-08
1.5705726864745774e-09
1.950372341654967e-10
2.0952010718372496e-11
1.6158814970272553e-12
1.0801609088132208e-13
0.0
0.0
0.24161334189381087
0.7048821399569228
1.296555719910755
1.9687886813187345
2.253795086330387
2.235781568292477
1.9504842570231087
1.3628670218002361
0.8520794433464326
0.44663968318107616
0.2185059387345081
0.09673534273428794
0.034152567438540206
0.01116517561748297
0.0035110021489348922
0.0010184125778452244
0.00028341764164149607
5.497082458428452e-05
9.950490040594049e-06
1.5195297096600785e-06
2.319117185093645e-07
3.850597189274206e-08
4.583495249310437e-09
5.060938654104451e-10
4.8692457113526453e-11
4.950232400314124e-12
4.0538181886243323e-13
3.7907953381048256e-14
0.0
0.0
0.07272961431959876
0.21086970435963218
0.4162009934739149
0.5993950505474542
0.7348412009968304
0.746885200678885
0.642556940048214
0.49884361299898566
0.3018130826614323
0.17139383732775804
0.08233708710798028
0.03254217316785401
0.010638611293719104
0.0032795124075363623
0.0009946487971911008
0.0002434994481678276
6.28817648993589e-05
1.2599838524856798e-05
2.3465072864394753e-06
3.9270812993832713e-07
6.170662903318764e-08
8.644612629930614e-09
1.4191608417863196e-09
1.5999962186304866e-10
1.574275570679519e-11
1.5519571486245785e-12
1.3429349837621235e-13
9.642162467174211e-15
0.0
0.0
0.01689591508708489
0.04962875631234774
0.11233886971040535
0.1554388384156747
0.18703176524883453
0.1885613388703607
0.14897344016966274
0.11685607841608592
0.07657454058757096
0.0358270541738976
0.018221569626356314
0.008358518874596696
0.00258753413565753
0.0008472612564053203
0.00024456214380117836
5.276466584235947e-05
1.2304519336845466e-05
2.4207162445379146e-06
4.4700018301034126e-07
5.908591299422907e-08
8.202150862074857e-09
1.195181342914924e-09
1.5111479718818533e-10
1.8865913126980336e-11
1.9640670533906138e-12
1.8184788875556697e-13
1.4114436089645838e-14
8.342341735260484e-16
0.0
0.0
0.002911316186798012
0.008972219668593672
0.018248825861787537
0.027999745802099463
0.034739684753151326
0.03286903298812097
0.025937553617219895
0.01895147393976206
0.012132735018417775
0.006238362165226758
0.003020235921245873
0.0013456387229945038
0.0004571898056509691
0.00012800092778428199
3.3695657692695446e-05
7.741551868374935e-06
1.558934951812745e-06
2.4734745494737345e-07
4.422481240573277e-08
8.01199360578635e-09
1.1620721820527518e-09
1.2266397078592368e-10
1.5706615833528675e-11
1.280232189300463e-12
1.2999342205058967e-13
1.2610424783761127e-14
1.0038978242582443e-15
7.814425820339953e-17
0.0
0.0
0.0003405040724597673
0.0010946993345532867
0.0024267409473939334
0.0037408630731378336
0.005104976445908775
0.004242081341832444
0.003154250144883168
0.002181050031312514
0.0012486191238252004
0.0005928531888871109
0.00028467402652315564
0.00013379260468197106
4.478187659335702e-05
1.2138616527680004e-05
3.6570487515117547e-06
8.234620962529368e-07
1.4877299036970672e-07
2.767348235525166e-08
4.481341329539839e-09
7.937772985527763e-10
9.949793628810599e-11
1.2311440974442911e-11
1.4917184079516165e-12
1.364956509905876e-13
1.2008826006204288e-14
1.0494501136155676e-15
6.475570082293215e-17
4.422304488390248e-18
0.0
0.0
3.7375886583274556e-05
0.00011307684010617175
0.0002479725219913172
0.0003636595728880716
0.0005230347958535811
0.0004529551531320911
0.000379311531106918
0.0002267486807363483
0.0001279419273383447
6.128592117759921e-05
2.715576133630168e-05
1.3496774536487756e-05
4.075691049043961e-06
1.2837519145517534e-06
3.772566900123403e-07
8.447988618489368e-08
1.4666100635785353e-08
2.5420668904024743e-09
3.919273725642063e-10
5.826395132243182e-11
6.6135383462179565e-12
7.579574443438343e-13
7.540440010524826e-14
6.494097284386591e-15
5.32647710894581e-16
4.8269844351277544e-17
3.169979183378999e-18
2.1602031943379851e-19
0.0
0.0
3.842608518876972e-06
1.1938984295317761e-05
2.1660504240808097e-05
3.3272523046264445e-05
3.932582843785093e-05
3.713449809502947e-05
3.4568354873646465e-05
2.1272515069642952e-05
1.1063348401117446e-05
4.8057590605912865e-06
2.2158348609338e-06
8.482830653889411e-07
2.5822498114010937e-07
8.542184382901786e-08
2.386411352492613e-08
5.761291909511055e-09
9.445184826068268e-10
1.785603711553077e-10
2.207460123555241e-11
2.5087971171989448e-12
3.42230620213245e-13
3.3300467155425804e-14
3.788754266412876e-15
3.6863249574747675e-16
2.2801714791680344e-17
1.9056590259861492e-18
1.1684076174224423e-19
6.525630346554146e-21
0.0
0.0
0.0
0.0
0.0
0.0
0.0
0.0
0.0
0.0
0.0
0.0
0.0
0.0
0.0
0.0
0.0
0.0
0.0
0.0
0.0
0.0
0.0
0.0
0.0
0.0
0.0
0.0
0.0
0.0
0.0

SCALARS concentration_t3 double 1
LOOKUP_TABLE default
0.0
0.0
0.0
0.0
0.0
0.0
0.0
0.0
0.0
0.0
0.0
0.0
0.0
0.0
0.0
0.0
0.0
0.0
0.0
0.0
0.0
0.0
0.0
0.0
0.0
0.0
0.0
0.0
0.0
0.0
0.0
8.502947096610452e-09
1.4034343880323832e-08
4.4021197815178044e-08
7.086734943285357e-08
5.4176372043251045e-08
6.002782760166518e-08
1.2321572988703832e-07
1.0424138993812373e-07
7.952231408924764e-08
1.5144020983131e-07
1.02000497145387e-07
6.243127178090126e-08
3.2043979276642544e-08
1.1690317612661367e-08
4.31897261642496e-09
1.634477800429389e-09
5.69831471786935e-10
1.6721676325609834e-10
4.9801196102689184e-11
1.2958272769742411e-11
3.977520011995916e-12
9.539976016837112e-13
2.5198778890691094e-13
5.6812003231998576e-14
1.0771447002129166e-14
1.818380772587168e-15
2.9014863625165655e-16
4.665769244364836e-17
0.0
0.0
1.544577928087302e-07
4.2031299394681617e-07
1.0012439636894354e-06
1.2998466043478145e-06
1.0792851998197873e-06
2.11162092808084e-06
2.772297584929587e-06
1.9131429231868e-06
2.201643522496577e-06
2.6524833787569096e-06
1.8298558937449746e-06
9.922310636881771e-07
5.112412556272575e-07
2.1561852692610593e-07
8.335275624877586e-08
2.6461440658582092e-08
9.12217309220201e-09
2.7868966139688766e-09
8.648136551146604e-10
2.678670567457546e-10
7.904091615779287e-11
2.1216035912596553e-11
5.495479511940417e-12
1.239357484110301e-12
2.3451203214370023e-13
3.3963914193496836e-14
6.6762463686033646e-15
1.203393570386158e-15
0.0
0.0
2.2281282989760177e-06
7.107012552470515e-06
1.4915284036194911e-05
2.6368765020440892e-05
2.9257359122503244e-05
4.9108068875468356e-05
4.7592657294213166e-05
4.672475784588116e-05
4.689188870098864e-05
3.8341213228110323e-05
2.604540046896729e-05
1.1855985397868792e-05
5.75334406659092e-06
2.393279024455108e-06
8.818722805915964e-07
3.189622347926091e-07
1.0613964123997859e-07
3.584673668076974e-08
1.4634225805260157e-08
5.138519401537321e-09
1.546823755390785e-09
3.657650954902349e-10
1.225466089444189e-10
2.371677940922557e-11
5.3383438874167135e-12
8.306514956936181e-13
1.282015946145434e-13
2.4506394607705467e-14
0.0
0.0
2.4835025971009867e-05
8.187576158180528e-05
0.00016032669312898538
0.0003222432956287444
0.00045319486855437016
0.0006740134013597845
0.0007307682715454687
0.0007641039365656304
0.0006063719765292392
0.0004489817981689275
0.0002521785814147537
0.0001454327359274183
7.05876024481255e-05
4.0217082699881954e-05
2.167850245871425e-05
7.626500455476686e-06
2.595395790090192e-06
1.134881046353791e-06
3.273976343157531e-07
1.0976644283146338e-07
3.665864638867429e-08
1.349391428316775e-08
2.8510441605974176e-09
5.310839660693071e-10
9.2797469179582e-11
2.0256583863453686e-11
4.064631903836063e-12
7.530612450663851e-13
0.0
0.0
0.00023329986359146076
0.0007538110244751561
0.0014297222113445268
0.002591547007484908
0.004598683662425588
0.005972956253673844
0.006651198456345022
0.00639315685292262
0.005475000279793285
0.0037663789190858386
0.002608150145912005
0.0019967369066297294
0.0009721671304150177
0.0006548012958006217
0.00031441497352976337
0.000128114793156834
4.638009327356957e-05
1.8305412820917714e-05
5.19637970787815e-06
1.8423677973198842e-06
6.360900936053078e-07
1.8486446698662935e-07
4.431866033914893e-08
8.277087707247097e-09
1.6721611368064271e-09
3.5392836076916937e-10
7.388340767502483e-11
1.0218920387567081e-11
0.0
0.0
0.002224936673652849
0.007468858725937934
0.012868685142697348
0.01891812791518782
0.035219817708390305
0.047971484932624764
0.051517869173338046
0.062131588443522484
0.06564249185511556
0.04809860927969551
0.03160837513215861
0.020342349168951737
0.010801386404177559
0.006711761566441297
0.003387151237784721
0.0013891490624167004
0.0005406527636362999
0.00019284907978588686
6.561523863087099e-05
2.2076132132699124e-05
6.458207264607345e-06
2.119872749243169e-06
5.611523011066239e-07
1.2980030137912455e-07
2.456311578128062e-08
4.51222585500224e-09
7.272222389691741e-10
1.2082471940009531e-10
0.0
0.0
0.017400402092031936
0.05356439356759755
0.10075975234608534
0.1777573646072275
0.28591743665400127
0.38623426098958424
0.42700708572716534
0.46417190646742373
0.43454527721080694
0.3457037230667562
0.234406718205494
0.1417279935195422
0.07559280440530172
0.04048345228347084
0.021827460452940886
0.009082554323203415
0.004006604862577904
0.0014785137031918102
0.0005192667792636411
0.00015870003065738986
4.582740919054418e-05
1.2835690153290049e-05
3.7585711458180785e-06
1.0396917962612583e-06
2.0482042286134264e-07
4.408036071097098e-08
9.621985064229829e-09
1.4303281794063208e-09
0.0
0.0
0.08635049145258954
0.25743159020143963
0.5739083952272883
1.0528554427596617
1.481816135007052
1.7270920621174244
1.8466932895325934
1.7210380180699625
1.4446890585347358
1.0928627180127235
0.7439819137685189
0.4627234647643827
0.29181903800769765
0.15031941331501525
0.07632121961777251
0.03756596309696305
0.014845945825577427
0.006146267543365272
0.0024290373497127763
0.0008062561746018057
0.0002432906574934821
5.614308769553956e-05
1.5650178938593083e-05
3.590081136510624e-06
8.09325127911048e-07
1.7328225359253729e-07
2.880575403291399e-08
4.702265154023624e-09
0.0
0.0
0.1911675712159252
0.5417001984742504
1.0548538112084394
1.7584606086144194
2.378275443219377
2.9807428422027527
3.12168506482485
2.964748132119242
2.5161162145473956
1.9873339817336164
1.4275017122615363
0.896772630060863
0.5239864689465975
0.29004892159387485
0.15111403817679317
0.06448187506709942
0.025225800835803943
0.009476459063332873
0.0028816093076035375
0.0008669508346861418
0.00032355546701541365
8.886424090605436e-05
2.0667857982635788e-05
5.021064606985946e-06
1.3516915353701077e-06
2.5738907054220015e-07
6.184141681841035e-08
1.1538186848771421e-08
0.0
0.0
0.2152956556715609
0.6727774077191404
1.4553202229024982
2.2867518271999394
3.065279004311777
3.6790733068062798
3.8808416327355064
3.6761187186179756
3.1137975812730967
2.43998588434483
1.7161130718740165
1.0320018608423462
0.5326290454716381
0.2788170373827807
0.12678548636405573
0.05828719195726355
0.020948665469121126
0.007478521552133921
0.0027056585636607545
0.000946895701116591
0.0002796437455367426
8.461588572967323e-05
2.0345516014334597e-05
4.459634453532978e-06
1.1646348905729165e-06
2.4215013209158415e-07
4.7651586312555617e-08
8.62928029142162e-09
0.0
0.0
0.22464110290069222
0.6930350905360058
1.4478250366239371
2.255911548188752
3.061085976747785
3.6737280186382364
3.845519033564229
3.5735169550705654
2.9780297909367133
2.276842240172749
1.6638588028461583
1.0468711193851146
0.6021570715318665
0.303501714616169
0.14738997560014813
0.05638216505781152
0.021288687929746725
0.008029006954719548
0.0026816021309979342
0.0009030104260267216
0.0002462343293272397
6.05319530395953e-05
1.4379173380677605e-05
3.4914750281379147e-06
8.358922802940191e-07
1.791797800410825e-07
2.9422159863520038e-08
4.3315716554112785e-09
0.0
0.0
0.14926648998955763
0.43863846635786397
0.8433688721128143
1.396837378608691