# vtk DataFile Version 3.0
Solut Transport Simulation Results
ASCII
DATASET STRUCTURED_POINTS
DIMENSIONS 30 20 1
ORIGIN 0 0 0
SPACING 3.4482758620689653 2.6315789473684212 1.0
POINT_DATA 600

SCALARS concentration_t0 double 1
LOOKUP_TABLE default
0.0
0.0
0.0
0.0
0.0
0.0
0.0
0.0
0.0
0.0
0.0
0.0
0.0
0.0
0.0
0.0
0.0
0.0
0.0
0.0
0.0
0.0
0.0
0.0
0.0
0.0
0.0
0.0
0.0
0.0
0.0
0.0
0.0
0.0
0.0
0.0
0.0
0.0
0.0
0.0
0.0
0.0
0.0
0.0
0.0
0.0
0.0
0.0
0.0
0.0
0.0
0.0
0.0
0.0
0.0
0.0
0.0
0.0
0.0
0.0
0.0
0.0
0.0
0.0
0.0
0.0
0.0
0.0
0.0
0.0
0.0
0.0
0.0
0.0
0.0
0.0
0.0
0.0
0.0
0.0
0.0
0.0
0.0
0.0
0.0
0.0
0.0
0.0
0.0
0.0
0.0
0.0
0.0
0.0
0.0
0.0
0.0
0.0
0.0
0.0
0.0
0.0
0.0
0.0
0.0
0.0
0.0
0.0
0.0
0.0
0.0
0.0
0.0
0.0
0.0
0.0
0.0
0.0
0.0
0.0
0.0
0.0
0.0
0.0
0.0
0.0
0.0
0.0
0.0
0.0
0.0
0.0
0.0
0.0
0.0
0.0
0.0
0.0
0.0
0.0
0.0
0.0
0.0
0.0
0.0
0.0
0.0
0.0
0.0
0.0
0.0
0.0
0.0
0.0
0.0
0.0
0.0
0.0
0.0
0.0
0.0
0.0
0.0
0.0
0.0
0.0
0.0
0.0
0.0
0.0
0.0
0.0
0.0
0.0
0.0
0.0
0.0
0.0
0.0
0.0
0.0
0.0
0.0
0.0
0.0
0.0
0.0
0.0
0.0
0.0
0.0
0.0
0.0
0.0
0.0
0.0
0.0
0.0
0.0
0.0
0.0
0.0
0.0
0.0
0.0
0.0
0.0
0.0
0.0
0.0
0.0
0.0
0.0
0.0
0.0
0.0
0.0
0.0
0.0
0.0
0.0
0.0
0.0
0.0
0.0
0.0
0.0
0.0
0.0
0.0
0.0
0.0
0.0
0.0
0.0
0.0
0.0
0.0
0.0
0.0
0.0
0.0
0.0
0.0
0.0
0.0
0.0
0.0
0.0
0.0
0.0
0.0
0.0
0.0
0.0
0.0
0.0
0.0
0.0
0.0
0.0
0.0
0.0
0.0
0.0
0.0
0.0
0.0
0.0
0.0
0.0
0.0
0.0
10.0
0.0
0.0
0.0
0.0
0.0
0.0
0.0
0.0
0.0
0.0
0.0
0.0
0.0
0.0
0.0
0.0
0.0
0.0
0.0
0.0
0.0
0.0
0.0
0.0
0.0
0.0
0.0
0.0
0.0
10.0
0.0
0.0
0.0
0.0
0.0
0.0
0.0
0.0
0.0
0.0
0.0
0.0
0.0
0.0
0.0
0.0
0.0
0.0
0.0
0.0
0.0
0.0
0.0
0.0
0.0
0.0
0.0
0.0
0.0
0.0
0.0
0.0
0.0
0.0
0.0
0.0
0.0
0.0
0.0
0.0
0.0
0.0
0.0
0.0
0.0
0.0
0.0
0.0
0.0
0.0
0.0
0.0
0.0
0.0
0.0
0.0
0.0
0.0
0.0
0.0
0.0
0.0
0.0
0.0
0.0
0.0
0.0
0.0
0.0
0.0
0.0
0.0
0.0
0.0
0.0
0.0
0.0
0.0
0.0
0.0
0.0
0.0
0.0
0.0
0.0
0.0
0.0
0.0
0.0
0.0
0.0
0.0
0.0
0.0
0.0
0.0
0.0
0.0
0.0
0.0
0.0
0.0
0.0
0.0
0.0
0.0
0.0
0.0
0.0
0.0
0.0
0.0
0.0
0.0
0.0
0.0
0.0
0.0
0.0
0.0
0.0
0.0
0.0
0.0
0.0
0.0
0.0
0.0
0.0
0.0
0.0
0.0
0.0
0.0
0.0
0.0
0.0
0.0
0.0
0.0
0.0
0.0
0.0
0.0
0.0
0.0
0.0
0.0
0.0
0.0
0.0
0.0
0.0
0.0
0.0
0.0
0.0
0.0
0.0
0.0
0.0
0.0
0.0
0.0
0.0
0.0
0.0
0.0
0.0
0.0
0.0
0.0
0.0
0.0
0.0
0.0
0.0
0.0
0.0
0.0
0.0
0.0
0.0
0.0
0.0
0.0
0.0
0.0
0.0
0.0
0.0
0.0
0.0
0.0
0.0
0.0
0.0
0.0
0.0
0.0
0.0
0.0
0.0
0.0
0.0
0.0
0.0
0.0
0.0
0.0
0.0
0.0
0.0
0.0
0.0
0.0
0.0
0.0
0.0
0.0
0.0
0.0
0.0
0.0
0.0
0.0
0.0
0.0
0.0
0.0
0.0
0.0
0.0
0.0
0.0
0.0
0.0
0.0
0.0
0.0
0.0
0.0
0.0
0.0
0.0
0.0
0.0
0.0
0.0
0.0
0.0
0.0
0.0
0.0
0.0
0.0
0.0
0.0
0.0
0.0
0.0
0.0
0.0
0.0
0.0
0.0
0.0
0.0
0.0
0.0
0.0
0.0
0.0
0.0
0.0
0.0
0.0
0.0
0.0
0.0
0.0
0.0
0.0
0.0
0.0
0.0
0.0
0.0
0.0
0.0
0.0
0.0
0.0
0.0
0.0
0.0

SCALARS concentration_t1 double 1
LOOKUP_TABLE default
0.0
0.0
0.0
0.0
0.0
0.0
0.0
0.0
0.0
0.0
0.0
0.0
0.0
0.0
0.0
0.0
0.0
0.0
0.0
0.0
0.0
0.0
0.0
0.0
0.0
0.0
0.0
0.0
0.0
0.0
0.0
9.950148156903921e-15
1.2811068811007086e-12
4.12961580973301e-11
3.489911848515723e-12
7.383932776128108e-14
0.0
0.0
0.0
0.0
0.0
0.0
0.0
0.0
0.0
0.0
0.0
0.0
0.0
0.0
0.0
0.0
0.0
0.0
0.0
0.0
0.0
0.0
0.0
0.0
0.0
2.985623264553988e-12
1.9243281903296427e-10
4.145829015699922e-09
5.242135415035923e-10
2.2156093690941075e-11
3.1240240055603863e-13
0.0
0.0
0.0
0.0
0.0
0.0
0.0
0.0
0.0
0.0
0.0
0.0
0.0
0.0
0.0
0.0
0.0
0.0
0.0
0.0
0.0
0.0
0.0
0.0
3.9251496461477347e-10
1.6894022006586925e-08
2.738812287896698e-07
4.602164615587472e-08
2.9131434882149316e-09
8.206058181475603e-11
8.673818036213974e-13
0.0
0.0
0.0
0.0
0.0
0.0
0.0
0.0
0.0
0.0
0.0
0.0
0.0
0.0
0.0
0.0
0.0
0.0
0.0
0.0
0.0
0.0
0.0
2.95473920480805e-08
9.559083339777198e-07
1.2449161052603385e-05
2.6040263737120657e-06
2.1934078807504747e-07
9.254763931755917e-09
1.9541559410064238e-10
1.6513892344293263e-12
0.0
0.0
0.0
0.0
0.0
0.0
0.0
0.0
0.0
0.0
0.0
0.0
0.0
0.0
0.0
0.0
0.0
0.0
0.0
0.0
0.0
0.0
1.3943544554279772e-06
3.6191487801903627e-05
0.00039479319078889965
9.859064651791122e-05
1.0354152640764235e-05
5.814185556522517e-07
1.838619664523354e-08
3.103147925394675e-10
2.1833637673577953e-12
0.0
0.0
0.0
0.0
0.0
0.0
0.0
0.0
0.0
0.0
0.0
0.0
0.0
0.0
0.0
0.0
0.0
0.0
0.0
0.0
0.0
4.2322209593620826e-05
0.0009188731269883357
0.008645760073833376
0.0025031402920606544
0.00031441001253150924
2.201279270104984e-05
9.261112284932355e-07
2.339908507006259e-08
3.28659752027673e-10
1.9794564269951367e-12
0.0
0.0
0.0
0.0
0.0
0.0
0.0
0.0
0.0
0.0
0.0
0.0
0.0
0.0
0.0
0.0
0.0
0.0
0.0
0.0
0.0008104820207243096
0.01516129010594895
0.12581985396059514
0.04130156505348273
0.00602422994304727
0.0005042318376920882
2.642864299870069e-05
8.875691091458044e-07
1.8645311869647637e-08
2.239691889668791e-10
1.1777011792535992e-12
0.0
0.0
0.0
0.0
0.0
0.0
0.0
0.0
0.0
0.0
0.0
0.0
0.0
0.0
0.0
0.0
0.0
0.0
0.0
0.009069140626405098
0.14964707906971556
1.1161238592240978
0.40766158546104087
0.06745163524864971
0.006544379580019563
0.0004091668078291058
1.7079417090161125e-05
4.7578611972962704e-07
8.52778035658987e-09
8.92279915616764e-11
4.152221301431202e-13
0.0
0.0
0.0
0.0
0.0
0.0
0.0
0.0
0.0
0.0
0.0
0.0
0.0
0.0
0.0
0.0
0.0
0.0
0.04813294346346299
0.7180185502681388
4.915460637927298
1.9560002611660032
0.35822299831235255
0.03911700817330956
0.0028110819754277932
0.00013876202781015051
4.762655777004537e-06
1.1220640104500558e-07
1.7364074512125664e-09
1.593716851873428e-11
6.587769391675129e-14
0.0
0.0
0.0
0.0
0.0
0.0
0.0
0.0
0.0
0.0
0.0
0.0
0.0
0.0
0.0
0.0
0.0
0.04813294346346299
0.7180185502681388
4.915460637927298
1.9560002611660032
0.35822299831235255
0.03911700817330956
0.0028110819754277932
0.00013876202781015051
4.762655777004537e-06
1.1220640104500558e-07
1.7364074512125664e-09
1.593716851873428e-11
6.587769391675129e-14
0.0
0.0
0.0
0.0
0.0
0.0
0.0
0.0
0.0
0.0
0.0
0.0
0.0
0.0
0.0
0.0
0.0
0.009069140626405098
0.14964707906971556
1.1161238592240978
0.40766158546104087
0.06745163524864971
0.006544379580019563
0.0004091668078291058
1.7079417090161125e-05
4.7578611972962704e-07
8.52778035658987e-09
8.92279915616764e-11
4.152221301431202e-13
0.0
0.0
0.0
0.0
0.0
0.0
0.0
0.0
0.0
0.0
0.0
0.0
0.0
0.0
0.0
0.0
0.0
0.0
0.0008104820207243096
0.01516129010594895
0.12581985396059514
0.04130156505348273
0.00602422994304727
0.0005042318376920882
2.642864299870069e-05
8.875691091458044e-07
1.8645311869647637e-08
2.239691889668791e-10
1.1777011792535992e-12
0.0
0.0
0.0
0.0
0.0
0.0
0.0
0.0
0.0
0.0
0.0
0.0
0.0
0.0
0.0
0.0
0.0
0.0
0.0
4.2322209593620826e-05
0.0009188731269883357
0.008645760073833376
0.0025031402920606544
0.00031441001253150924
2.201279270104984e-05
9.261112284932355e-07
2.339908507006259e-08
3.28659752027673e-10
1.9794564269951367e-12
0.0
0.0
0.0
0.0
0.0
0.0
0.0
0.0
0.0
0.0
0.0
0.0
0.0
0.0
0.0
0.0
0.0
0.0
0.0
0.0
1.3943544554279772e-06
3.6191487801903627e-05
0.00039479319078889965
9.859064651791122e-05
1.0354152640764235e-05
5.814185556522517e-07
1.838619664523354e-08
3.103147925394675e-10
2.1833637673577953e-12
0.0
0.0
0.0
0.0
0.0
0.0
0.0
0.0
0.0
0.0
0.0
0.0
0.0
0.0
0.0
0.0
0.0
0.0
0.0
0.0
0.0
2.95473920480805e-08
9.559083339777198e-07
1.2449161052603385e-05
2.6040263737120657e-06
2.1934078807504747e-07
9.254763931755917e-09
1.9541559410064238e-10
1.6513892344293263e-12
0.0
0.0
0.0
0.0
0.0
0.0
0.0
0.0
0.0
0.0
0.0
0.0
0.0
0.0
0.0
0.0
0.0
0.0
0.0
0.0
0.0
0.0
3.9251496461477347e-10
1.6894022006586925e-08
2.738812287896698e-07
4.602164615587472e-08
2.9131434882149316e-09
8.206058181475603e-11
8.673818036213974e-13
0.0
0.0
0.0
0.0
0.0
0.0
0.0
0.0
0.0
0.0
0.0
0.0
0.0
0.0
0.0
0.0
0.0
0.0
0.0
0.0
0.0
0.0
0.0
2.985623264553988e-12
1.9243281903296427e-10
4.145829015699922e-09
5.242135415035923e-10
2.2156093690941075e-11
3.1240240055603863e-13
0.0
0.0
0.0
0.0
0.0
0.0
0.0
0.0
0.0
0.0
0.0
0.0
0.0
0.0
0.0
0.0
0.0
0.0
0.0
0.0
0.0
0.0
0.0
0.0
9.950148156903921e-15
1.2811068811007086e-12
4.12961580973301e-11
3.489911848515723e-12
7.383932776128108e-14
0.0
0.0
0.0
0.0
0.0
0.0
0.0
0.0
0.0
0.0
0.0
0.0
0.0
0.0
0.0
0.0
0.0
0.0
0.0
0.0
0.0
0.0
0.0
0.0
0.0
0.0
0.0
0.0
0.0
0.0
0.0
0.0
0.0
0.0
0.0
0.0
0.0
0.0
0.0
0.0
0.0
0.0
0.0
0.0
0.0
0.0
0.0
0.0
0.0
0.0
0.0
0.0
0.0
0.0

SCALARS concentration_t2 double 1
LOOKUP_TABLE default
0.0
0.0
0.0
0.0
0.0
0.0
0.0
0.0
0.0
0.0
0.0
0.0
0.0
0.0
0.0
0.0
0.0
0.0
0.0
0.0
0.0
0.0
0.0
0.0
0.0
0.0
0.0
0.0
0.0
0.0
0.0
6.716158636802466e-10
8.038390433902792e-09
4.533222313115916e-08
2.1898286496507867e-08
5.008347868118859e-09
7.001136956021569e-10
6.629262736855364e-11
4.471891036161556e-12
2.2020260432488697e-13
7.972257650594718e-15
2.1057203586025776e-16
3.956750274427079e-18
5.020280602248074e-20
3.8615237591115586e-22
1.361697806341827e-24
0.0
0.0
0.0
0.0
0.0
0.0
0.0
0.0
0.0
0.0
0.0
0.0
0.0
0.0
0.0
1.8505665039847073e-08
2.0397216235797325e-07
1.0709953837786588e-06
5.556710218610661e-07
1.3814646540082533e-07
2.1195703477130305e-08
2.2263508479594163e-09
1.6873188477572008e-10
9.484798004955561e-12
4.002198758373332e-13
1.2673807172725578e-14
2.974385483804323e-16
5.028013960963252e-18
5.797154886647844e-20
4.0858855424031294e-22
1.3294905920857132e-24
0.0
0.0
0.0
0.0
0.0
0.0
0.0
0.0
0.0
0.0
0.0
0.0
0.0
0.0
4.0997779420482126e-07
4.191860693937252e-06
2.062482172394516e-05
1.1419874677800373e-05
3.064078815471233e-06
5.11653319753798e-07
5.9014005291551056e-08
4.9624237315654945e-09
3.1342788717187076e-10
1.5097873222780297e-11
5.572199546122e-13
1.567778027851558e-14
3.30982729697912e-16
5.08387836692394e-18
5.3704267736104775e-20
3.492251381859274e-22
1.0546616850652248e-24
0.0
0.0
0.0
0.0
0.0
0.0
0.0
0.0
0.0
0.0
0.0
0.0
0.0
7.218517708045153e-06
6.891026097084781e-05
0.0003195603164078628
0.00018773626040892476
5.401728729702987e-05
9.745241460086384e-06
1.2236605752821459e-06
1.129899660468447e-07
7.917320377064581e-09
4.2845635528825076e-10
1.8048936962518826e-11
5.917432726720636e-13
1.497410782503033e-14
2.8719106845451765e-16
4.0408725479650035e-18
3.9376276177451445e-20
2.3760855819401605e-22
6.6931576744721045e-25
0.0
0.0
0.0
0.0
0.0
0.0
0.0
0.0
0.0
0.0
0.0
0.0
9.902389819162072e-05
0.0008877157505134278
0.0039003326571441094
0.0024185237876799505
0.0007420065242185322
0.00014369937047633354
1.949768865048214e-05
1.9597730476770733e-06
1.507610759630517e-07
9.048871161363293e-09
4.281157946765175e-10
1.6015628891299385e-11
4.721074834969104e-13
1.0849848738260538e-14
1.9056172907720493e-16
2.4726110260457483e-18
2.2352135887869363e-20
1.2577203435055121e-22
3.318478235849982e-25
0.0
0.0
0.0
0.0
0.0
0.0
0.0
0.0
0.0
0.0
0.0
0.0010259445023252072
0.008683286250063012
0.036324081962051856
0.023657852935047803
0.007698523161860505
0.001591050770090259
0.0002317254812297446
2.5159584622566152e-05
2.1058443135054414e-06
1.3869135200269064e-07
7.2737100532788006e-09
3.0543590581076934e-10
1.0267808280794133e-11
2.7473363906609767e-13
5.778862124528328e-15
9.354927555293459e-17
1.1254848287035756e-18
9.48246995830015e-21
4.995274953305372e-23
1.2388192338817514e-25
0.0
0.0
0.0
0.0
0.0
0.0
0.0
0.0
0.0
0.0
0.007637278440717089
0.061354695586981416
0.24556268060683978
0.16716925239366845
0.057393267770102056
0.012584786516340696
0.0019547939673204224
0.0002276123837243345
2.0557803685497672e-05
1.4715264083844779e-06
8.458887789272068e-08
3.933115505450023e-09
1.482512146542383e-10
4.518779134570275e-12
1.1054471649547713e-13
2.1409076509943536e-15
3.210166947033115e-17
3.5959011719366677e-19
2.8335777705026934e-21
1.401684499366594e-23
3.275778929851215e-26
0.0
0.0
0.0
0.0
0.0
0.0
0.0
0.0
0.0
0.037491624533372556
0.2876758741318431
1.1078375878861826
0.7838472811181237
0.28215892052778496
0.06520207492998685
0.010723091394489615
0.0013284177776915615
0.0001283447748287787
9.887834959956795e-06
6.161408709581041e-07
3.1318977610177144e-08
1.3037646773142019e-09
4.444320099928168e-11
1.2353825418786658e-12
2.7755647069190183e-14
4.966622977088014e-16
6.9168167565828015e-18
7.229094845631962e-20
5.336532827567816e-22
2.481878933805004e-24
5.470775279405991e-27
0.0
0.0
0.0
0.0
0.0
0.0
0.0
0.0
0.10252790718205931
0.7592425930526157
2.8391343963587254
2.0688411662856536
0.7726015842721663
0.18603286137435687
0.03200735619233942
0.004165641744102595
0.0004247617073097467
3.471803690942428e-05
2.309046542919077e-06
1.2615807712828978e-07
5.692379204513956e-09
2.1246172029936165e-10
6.547619157245088e-12
1.656963974566052e-13
3.4095328736084926e-15
5.616786767341698e-17
7.234165908021409e-19
7.020473309485659e-21
4.8294678698339116e-23
2.0998078191537236e-25
4.339870555789172e-28
0.0
0.0
0.0
0.0
0.0
0.0
0.0
0.10252790718205931
0.7592425930526157
2.8391343963587254
2.0688411662856536
0.7726015842721663
0.18603286137435687
0.03200735619233942
0.004165641744102595
0.0004247617073097467
3.471803690942428e-05
2.309046542919077e-06
1.2615807712828978e-07
5.692379204513956e-09
2.1246172029936165e-10
6.547619157245088e-12
1.656963974566052e-13
3.4095328736084926e-15
5.616786767341698e-17
7.234165908021409e-19
7.020473309485659e-21
4.8294678698339116e-23
2.0998078191537236e-25
4.339870555789172e-28
0.0
0.0
0.0
0.0
0.0
0.0
0.0
0.037491624533372556
0.2876758741318431
1.1078375878861826
0.7838472811181237
0.28215892052778496
0.06520207492998685
0.010723091394489615
0.0013284177776915615
0.0001283447748287787
9.887834959956795e-06
6.161408709581041e-07
3.1318977610177144e-08
1.3037646773142019e-09
4.444320099928168e-11
1.2353825418786658e-12
2.7755647069190183e-14
4.966622977088014e-16
6.9168167565828015e-18
7.229094845631962e-20
5.336532827567816e-22
2.481878933805004e-24
5.470775279405991e-27
0.0
0.0
0.0
0.0
0.0
0.0
0.0
0.0
0.007637278440717089
0.061354695586981416
0.24556268060683978
0.16716925239366845
0.057393267770102056
0.012584786516340696
0.0019547939673204224
0.0002276123837243345
2.0557803685497672e-05
1.4715264083844779e-06
8.458887789272068e-08
3.933115505450023e-09
1.482512146542383e-10
4.518779134570275e-12
1.1054471649547713e-13
2.1409076509943536e-15
3.210166947033115e-17
3.5959011719366677e-19
2.8335777705026934e-21
1.401684499366594e-23
3.275778929851215e-26
0.0
0.0
0.0
0.0
0.0
0.0
0.0
0.0
0.0
0.0010259445023252072
0.008683286250063012
0.036324081962051856
0.023657852935047803
0.007698523161860505
0.001591050770090259
0.0002317254812297446
2.5159584622566152e-05
2.1058443135054414e-06
1.3869135200269064e-07
7.2737100532788006e-09
3.0543590581076934e-10
1.0267808280794133e-11
2.7473363906609767e-13
5.778862124528328e-15
9.354927555293459e-17
1.1254848287035756e-18
9.48246995830015e-21
4.995274953305372e-23
1.2388192338817514e-25
0.0
0.0
0.0
0.0
0.0
0.0
0.0
0.0
0.0
0.0
9.902389819162072e-05
0.0008877157505134278
0.0039003326571441094
0.0024185237876799505
0.0007420065242185322
0.00014369937047633354
1.949768865048214e-05
1.9597730476770733e-06
1.507610759630517e-07
9.048871161363293e-09
4.281157946765175e-10
1.6015628891299385e-11
4.721074834969104e-13
1.0849848738260538e-14
1.9056172907720493e-16
2.4726110260457483e-18
2.2352135887869363e-20
1.2577203435055121e-22
3.318478235849982e-25
0.0
0.0
0.0
0.0
0.0
0.0
0.0
0.0
0.0
0.0
0.0
7.218517708045153e-06
6.891026097084781e-05
0.0003195603164078628
0.00018773626040892476
5.401728729702987e-05
9.745241460086384e-06
1.2236605752821459e-06
1.129899660468447e-07
7.917320377064581e-09
4.2845635528825076e-10
1.8048936962518826e-11
5.917432726720636e-13
1.497410782503033e-14
2.8719106845451765e-16
4.0408725479650035e-18
3.9376276177451445e-20
2.3760855819401605e-22
6.6931576744721045e-25
0.0
0.0
0.0
0.0
0.0
0.0
0.0
0.0
0.0
0.0
0.0
0.0
4.0997779420482126e-07
4.191860693937252e-06
2.062482172394516e-05
1.1419874677800373e-05
3.064078815471233e-06
5.11653319753798e-07
5.9014005291551056e-08
4.9624237315654945e-09
3.1342788717187076e-10
1.5097873222780297e-11
5.572199546122e-13
1.567778027851558e-14
3.30982729697912e-16
5.08387836692394e-18
5.3704267736104775e-20
3.492251381859274e-22
1.0546616850652248e-24
0.0
0.0
0.0
0.0
0.0
0.0
0.0
0.0
0.0
0.0
0.0
0.0
0.0
1.8505665039847073e-08
2.0397216235797325e-07
1.0709953837786588e-06
5.556710218610661e-07
1.3814646540082533e-07
2.1195703477130305e-08
2.2263508479594163e-09
1.6873188477572008e-10
9.484798004955561e-12
4.002198758373332e-13
1.2673807172725578e-14
2.974385483804323e-16
5.028013960963252e-18
5.797154886647844e-20
4.0858855424031294e-22
1.3294905920857132e-24
0.0
0.0
0.0
0.0
0.0
0.0
0.0
0.0
0.0
0.0
0.0
0.0
0.0
0.0
6.716158636802466e-10
8.038390433902792e-09
4.533222313115916e-08
2.1898286496507867e-08
5.008347868118859e-09
7.001136956021569e-10
6.629262736855364e-11
4.471891036161556e-12
2.2020260432488697e-13
7.972257650594718e-15
2.1057203586025776e-16
3.956750274427079e-18
5.020280602248074e-20
3.8615237591115586e-22
1.361697806341827e-24
0.0
0.0
0.0
0.0
0.0
0.0
0.0
0.0
0.0
0.0
0.0
0.0
0.0
0.0
0.0
0.0
0.0
0.0
0.0
0.0
0.0
0.0
0.0
0.0
0.0
0.0
0.0
0.0
0.0
0.0
0.0
0.0
0.0
0.0
0.0
0.0
0.0
0.0
0.0
0.0
0.0
0.0
0.0
0.0

SCALARS concentration_t3 double 1
LOOKUP_TABLE default
0.0
0.0
0.0
0.0
0.0
0.0
0.0
0.0
0.0
0.0
0.0
0.0
0.0
0.0
0.0
0.0
0.0
0.0
0.0
0.0
0.0
0.0
0.0
0.0
0.0
0.0
0.0
0.0
0.0
0.0
0.0
4.174993829415845e-08
2.7561979613414374e-07
9.356744213135789e-07
7.511717034743408e-07
3.161029981303545e-07
8.665475115446984e-08
1.7107174023244607e-08
2.573685215897663e-09
3.0572095354359e-10
2.935747638740777e-11
2.315860475630922e-12
1.5172011203743135e-13
8.313374159910931e-15
3.824992777466031e-16
1.4795546191854112e-17
4.804688855615718e-19
1.3044275392712043e-20
2.939015919253113e-22
5.4336457691016535e-24
8.106276664421413e-26
9.520372879264554e-28
8.476085273050462e-30
5.3779349365499e-32
2.166927413580928e-34
4.167973562644513e-37
0.0
0.0
0.0
0.0
0.0
6.104906095427764e-07
3.875824206249351e-06
1.2744809922120971e-05
1.056413337424329e-05
4.63149758547573e-06
1.3285659291216194e-06
2.753922822452425e-07
4.3644362386237594e-08
5.479847920784509e-09
5.582444239015956e-10
4.6907552653545545e-11
3.2883712661059852e-12
1.9381287960554831e-13
9.649696209449086e-15
4.067678245373287e-16
1.4515864465167638e-17
4.374692906830588e-19
1.1078884293312962e-20
2.3388992644904206e-22
4.067633376169069e-24
5.728322474321915e-26
6.3704275843006555e-28
5.3856075215644876e-30
3.252961709645467e-32
1.2506345270892422e-34
2.3000909146136527e-37
0.0
0.0
0.0
0.0
7.472833082269162e-06
4.572559610582812e-05
0.00014594121358654736
0.00012464526385718236
5.68112361357578e-05
1.7013733828918988e-05
3.6937197325812043e-06
6.149465047616314e-07
8.135942635609291e-08
8.762356923350983e-09
7.811987364281335e-10
5.833997546268589e-11
3.679630283190913e-12
1.9707038887833635e-13
8.989634455938727e-15
3.496016057423279e-16
1.1578061808623606e-17
3.254795721520037e-19
7.723056040854975e-21
1.5336396932293338e-22
2.517569063739698e-24
3.3569310616259806e-26
3.5446206023194276e-28
2.8524371687521613e-30
1.643743162928549e-32
6.041784517151089e-35
1.0643628231088168e-37
0.0
0.0
0.0
7.55549542594137e-05
0.0004466329712115476
0.00138663864718539
0.0012176411389694043
0.0005756339139670171
0.0001795363287712039
4.071659893164078e-05
7.100790126294411e-06
9.86869198428811e-07
1.1198201844281e-07
1.055286033983294e-08
8.36005956812418e-10
5.615902292154664e-11
3.217917176678453e-12
1.5786358649317735e-13
6.642030070118614e-15
2.3966161531857205e-16
7.40193357830082e-18
1.9491822390774799e-19
4.3495127046370916e-21
8.15095425497933e-23
1.2666303145987188e-24
1.6032724251597308e-26
1.611118191627388e-28
1.236694146828509e-30
6.812043919307371e-33
2.397941627874327e-35
4.052834173532908e-38
0.0
0.0
0.0006170567754189501
0.0035321375507632573
0.010689675338872603
0.009630829619681558
0.004711556076273913
0.0015267132906001584
0.0003607523761543684
6.572069511972097e-05
9.566149769947091e-06
1.139955733964729e-06
1.1314722398452857e-07
9.471335595117395e-09
6.746780582716446e-10
4.115872863760583e-11
2.15945474853593e-12
9.767575318212188e-14
3.811628459630957e-15
1.2821329911544747e-16
3.708021083724643e-18
9.179477469237338e-20
1.932362716812569e-21
3.426825254626595e-23
5.053419094474617e-25
6.085476725513212e-27
5.831309118443822e-29
4.2772521127337496e-31
2.2556951656927548e-33
7.615735706254253e-36
0.0
0.0
0.0039443806956573225
0.02191624735452391
0.06479558486350108
0.059766075918960875
0.030184482304358874
0.010135759119298008
0.00248867783136068
0.0004722533603049858
7.177355267987834e-05
8.95267467229433e-06
9.326206243497963e-07
8.217307067618773e-08
6.181030520594718e-09
3.9959261439838123e-10
2.2306220139260952e-11
1.0783551137997894e-12
4.520956015965596e-14
1.643627430194405e-15
5.173885958329531e-17
1.4058130128405001e-18
3.2811330719084123e-20
6.532406231778753e-22
1.098694839751921e-23
1.5405529402539643e-25
1.768062129843458e-27
1.618076883900805e-29
1.1357189853494882e-31
5.741625056680825e-34
0.0
0.0
0.01883604084308406
0.10187120309976494
0.2949331401942584
0.2778470664394681
0.14445997969321786
0.050119238731939436
0.012747234074357525
0.0025113426711473328
0.0003971412940152414
5.166324124923234e-05
5.626569116527332e-06
5.196679156641173e-07
4.1093325924600225e-08
2.801753361047523e-09
1.6553405866357918e-10
8.503754782574767e-12
3.8057325153136236e-13
1.4846622225959706e-14
5.045100720135444e-16
1.4902880356257318e-17
3.8132433891104993e-19
8.407576586546476e-21
1.585736009274057e-22
2.5331463756948614e-24
3.3814295168173834e-26
3.702459233852818e-28
3.2390233313468034e-30
2.1771707109751433e-32
0.0
0.0
0.062447401540001266
0.32996912152222774
0.938406075538511
0.9001042800155074
0.479911857980502
0.17131114501975175
0.04493561071140409
0.009149157545875315
0.0014983359836074138
0.0002022791163896539
2.2913379089483602e-05
2.206445802339601e-06
1.823895039895992e-07
1.3036827037305223e-08
8.100840699325226e-10
4.392408990367203e-11
2.0831565587747116e-12
8.651267983145339e-14
3.14596922771901e-15
1.0004789242781296e-16
2.7755926846567825e-18
6.691207526589211e-20
1.393951722487116e-21
2.490590915428199e-23
3.777943207394916e-25
4.7991324046210354e-27
5.0105937304662296e-29
4.187442454963617e-31
0.0
0.0
0.1268444140518257
0.6592001811909367
1.8513062949086019
1.798412775326668
0.9763422057653471
0.3557957422268489
0.09545837901514807
0.019914376816780426
0.0033473928330083223
0.0004646658393815744
5.422546552100628e-05
5.390539316337306e-06
4.6104912723526544e-07
3.418301930161599e-08
2.2093251415508074e-09
1.2498606540986075e-10
6.206010770202946e-12
2.70895067283438e-13
1.0400222735786365e-14
3.509852946235662e-16
1.039476539455388e-17
2.6938859568680545e-19
6.083555548292131e-21
1.1902310483906537e-22
2.0018066311126104e-24
2.8644084855948704e-26
3.439179837776675e-28
3.3999903770353536e-30
0.0
0.0
0.1268444140518257
0.6592001811909367
1.8513062949086019
1.798412775326668
0.9763422057653471
0.3557957422268489
0.09545837901514807
0.019914376816780426
0.0033473928330083223
0.0004646658393815744
5.422546552100628e-05
5.390539316337306e-06
4.6104912723526544e-07
3.418301930161599e-08
2.2093251415508074e-09
1.2498606540986075e-10
6.206010770202946e-12
2.70895067283438e-13
1.0400222735786365e-14
3.509852946235662e-16
1.039476539455388e-17
2.6938859568680545e-19
6.083555548292131e-21
1.1902310483906537e-22
2.0018066311126104e-24
2.8644084855948704e-26
3.439179837776675e-28
3.3999903770353536e-30
0.0
0.0
0.062447401540001266
0.32996912152222774
0.938406075538511
0.9001042800155074
0.479911857980502
0.17131114501975175
0.04493561071140409
0.009149157545875315
0.0014983359836074138
0.0002022791163896539
2.2913379089483602e-05
2.206445802339601e-06
1.823895039895992e-07
1.3036827037305223e-08
8.100840699325226e-10
4.392408990367203e-11
2.0831565587747116e-12
8.651267983145339e-14
3.14596922771901e-15
1.0004789242781296e-16
2.7755926846567825e-18
6.691207526589211e-20
1.393951722487116e-21
2.490590915428199e-23
3.777943207394916e-25
4.7991324046210354e-27
5.0105937304662296e-29
4.187442454963617e-31
0.0
0.0
0.01883604084308406
0.10187120309976494
0.2949331401942584
0.2778470664394681
0.14445997969321786
0.050119238731939436
0.012747234074357525
0.0025113426711473328
0.0003971412940152414
5.166324124923234e-05
5.626569116527332e-06
5.196679156641173e-07
4.1093325924600225e-08
2.801753361047523e-09
1.6553405866357918e-10
8.503754782574767e-12
3.8057325153136236e-13
1.4846622225959706e-14
5.045100720135444e-16
1.4902880356257318e-17
3.8132433891104993e-19
8.407576586546476e-21
1.585736009274057e-22
2.5331463756948614e-24
3.3814295168173834e-26
3.702459233852818e-28
3.2390233313468034e-30
2.1771707109751433e-32
0.0
0.0
0.0039443806956573225
0.02191624735452391
0.06479558486350108
0.059766075918960875
0.030184482304358874
0.010135759119298008
0.00248867783136068
0.0004722533603049858
7.177355267987834e-05
8.95267467229433e-06
9.326206243497963e-07
8.217307067618773e-08
6.181030520594718e-09
3.9959261439838123e-10
2.2306220139260952e-11
1.0783551137997894e-12
4.520956015965596e-14
1.643627430194405e-15
5.173885958329531e-17
1.4058130128405001e-18
3.2811330719084123e-20
6.532406231778753e-22
1.098694839751921e-23
1.5405529402539643e-25
1.768062129843458e-27
1.618076883900805e-29
1.1357189853494882e-31
5.741625056680825e-34
0.0
0.0
0.0006170567754189501
0.0035321375507632573
0.010689675338872603
0.009630829619681558
0.004711556076273913
0.0015267132906001584
0.0003607523761543684
6.572069511972097e-05
9.566149769947091e-06
1.139955733964729e-06
1.1314722398452857e-07
9.471335595117395e-09
6.746780582716446e-10
4.115872863760583e-11
2.15945474853593e-12
9.767575318212188e-14
3.811628459630957e-15
1.2821329911544747e-16
3.708021083724643e-18
9.179477469237338e-20
1.932362716812569e-21
3.426825254626595e-23
5.053419094474617e-25
6.085476725513212e-27
5.831309118443822e-29
4.2772521127337496e-31
2.2556951656927548e-33
7.615735706254253e-36
0.0
0.0
7.55549542594137e-05
0.0004466329712115476
0.00138663864718539
0.0012176411389694043
0.0005756339139670171
0.0001795363287712039
4.071659893164078e-05
7.100790126294411e-06
9.86869198428811e-07
1.1198201844281e-07
1.055286033983294e-08
8.36005956812418e-10
5.615902292154664e-11
3.217917176678453e-12
1.5786358649317735e-13
6.642030070118614e-15
2.3966161531857205e-16
7.40193357830082e-18
1.9491822390774799e-19
4.3495127046370916e-21
8.15095425497933e-23
1.2666303145987188e-24
1.6032724251597308e-26
1.611118191627388e-28
1.236694146828509e-30
6.812043919307371e-33
2.397941627874327e-35
4.052834173532908e-38
0.0
0.0
7.472833082269162e-06
4.572559610582812e-05
0.00014594121358654736
0.00012464526385718236
5.68112361357578e-05
1.7013733828918988e-05
3.6937197325812043e-06
6.149465047616314e-07
8.135942635609291e-08
8.762356923350983e-09
7.811987364281335e-10
5.833997546268589e-11
3.679630283190913e-12
1.9707038887833635e-13
8.989634455938727e-15
3.496016057423279e-16
1.1578061808623606e-17
3.254795721520037e-19
7.723056040854975e-21
1.5336396932293338e-22
2.517569063739698e-24
3.3569310616259806e-26
3.5446206023194276e-28
2.8524371687521613e-30
1.643743162928549e-32
6.041784517151089e-35
1.0643628231088168e-37
0.0
0.0
0.0
6.104906095427764e-07
3.875824206249351e-06
1.2744809922120971e-05
1.056413337424329e-05
4.63149758547573e-06
1.3285659291216194e-06
2.753922822452425e-07
4.3644362386237594e-08
5.479847920784509e-09
5.582444239015956e-10
4.6907552653545545e-11
3.2883712661059852e-12
1.9381287960554831e-13
9.649696209449086e-15
4.067678245373287e-16
1.4515864465167638e-17
4.374692906830588e-19
1.1078884293312962e-20
2.3388992644904206e-22
4.067633376169069e-24
5.728322474321915e-26
6.3704275843006555e-28
5.3856075215644876e-30
3.252961709645467e-32
1.2506345270892422e-34
2.3000909146136527e-37
0.0
0.0
0.0
0.0
4.174993829415845e-08
2.7561979613414374e-07
9.356744213135789e-07
7.511717034743408e-07
3.161029981303545e-07
8.665475115446984e-08
1.7107174023244607e-08
2.573685215897663e-09
3.0572095354359e-10
2.935747638740777e-11
2.315860475630922e-12
1.5172011203743135e-13
8.313374159910931e-15
3.824992777466031e-16
1.4795546191854112e-17
4.804688855615718e-19
1.3044275392712043e-20
2.939015919253113e-22
5.4336457691016535e-24
8.106276664421413e-26
9.520372879264554e-28
8.476085273050462e-30
5.3779349365499e-32
2.166927413580928e-34
4.167973562644513e-37
0.0
0.0
0.0
0.0
0.0
0.0
0.0
0.0
0.0
0.0
0.0
0.0
0.0
0.0
0.0
0.0
0.0
0.0
0.0
0.0
0.0
0.0
0.0
0.0
0.0
0.0
0.0
0.0
0.0
0.0
0.0
0.0
0.0
0.0

SCALARS concentration_t4 double 1
LOOKUP_TABLE default
0.0
0.0
0.0
0.0
0.0
0.0
0.0
0.0
0.0
0.0
0.0
0.0
0.0
0.0
0.0
0.0
0.0
0.0
0.0
0.0
0.0
0.0
0.0
0.0
0.0
0.0
0.0
0.0
0.0
0.0
0.0
4.704090381930689e-07
2.2672953145642476e-06
6.011877426566988e-06
6.18971676489831e-06
3.649243615925056e-06
1.4582698122018897e-06
4.3147848759168567e-07
9.969504303784826e-08
1.862921019078253e-08
2.8850743076557853e-09
3.769707517674293e-10
4.2116053140694396e-11
4.064412298573272e-12
3.414709583079847e-13
2.5125764934905203e-14
1.6265280544906325e-15
9.294307333500848e-17
4.698529905933384e-18
2.1040569345535195e-19
8.349756666485824e-21
2.9349284228916937e-22
9.124757274211929e-24
2.5033187077404435e-25
6.039230018048361e-27
1.2751718838795328e-28
2.3418808149954886e-30
3.7104012383278795e-32
5.017352763701704e-34
0.0
0.0
4.733738800913157e-06
2.2312723006088897e-05
5.819941787081213e-05
6.092977587707639e-05
3.682384050582835e-05
1.513812799375926e-05
4.618331075325938e-06
1.1022504541339094e-06
2.1310952091042821e-07
3.420380087179697e-08
4.639340914136999e-09
5.38992801800967e-10
5.419033439363507e-11
4.75255804895275e-12
3.658255010817326e-13
2.4832029393997135e-14
1.4916836168288363e-15
7.949853071247225e-17
3.7649259332213824e-18
1.5856252862453408e-19
5.93842649341413e-21
1.9760391220744978e-22
5.832170740766413e-24
1.5227565472155472e-25
3.504257471117537e-27
7.072799052533472e-29
1.2440216227778294e-30
1.8908968135370733e-32
0.0
0.0
4.042036116378811e-05
0.0001865023401278442
0.00047894981856564083
0.0005094305192789506
0.0003153227461661609
0.0001332275671466879
4.186604215046513e-05
1.0310257626371728e-05
2.0600963686749636e-06
3.422301506332477e-07
4.812075015984686e-08
5.8048505007882676e-09
6.070175435298947e-10
5.5471264494014514e-11
4.4578636067734405e-12
3.165922352836242e-13
1.9943785015894167e-14
1.1174784349198995e-15
5.57966106158618e-17
2.485317056573121e-18
9.878767422119194e-20
3.502602766733023e-21
1.1064642696366519e-22
3.108019194657186e-24
7.74078514484444e-26
1.7027641657078567e-27
3.2914028035187513e-29
5.553676736521838e-31
0.0
0.0