# vtk DataFile Version 3.0
Solut Transport Simulation Results
ASCII
DATASET STRUCTURED_POINTS
DIMENSIONS 40 20 1
ORIGIN 0 0 0
SPACING 2.5641025641025643 2.6315789473684212 1.0
POINT_DATA 800

SCALARS concentration_t0 double 1
LOOKUP_TABLE default
0.0
0.0
0.0
0.0
0.0
0.0
0.0
0.0
0.0
0.0
0.0
0.0
0.0
0.0
0.0
0.0
0.0
0.0
0.0
0.0
0.0
0.0
0.0
0.0
0.0
0.0
0.0
0.0
0.0
0.0
0.0
0.0
0.0
0.0
0.0
0.0
0.0
0.0
0.0
0.0
0.0
0.0
0.0
0.0
0.0
0.0
0.0
0.0
0.0
0.0
0.0
0.0
0.0
0.0
0.0
0.0
0.0
0.0
0.0
0.0
0.0
0.0
0.0
0.0
0.0
0.0
0.0
0.0
0.0
0.0
0.0
0.0
0.0
0.0
0.0
0.0
0.0
0.0
0.0
0.0
0.0
0.0
0.0
0.0
0.0
0.0
0.0
0.0
0.0
0.0
0.0
0.0
0.0
0.0
0.0
0.0
0.0
0.0
0.0
0.0
0.0
0.0
0.0
0.0
0.0
0.0
0.0
0.0
0.0
0.0
0.0
0.0
0.0
0.0
0.0
0.0
0.0
0.0
0.0
0.0
0.0
0.0
0.0
0.0
0.0
0.0
0.0
0.0
0.0
0.0
0.0
0.0
0.0
0.0
0.0
0.0
0.0
0.0
0.0
0.0
0.0
0.0
0.0
0.0
0.0
0.0
0.0
0.0
0.0
0.0
0.0
0.0
0.0
0.0
0.0
0.0
0.0
0.0
0.0
0.0
0.0
0.0
0.0
0.0
0.0
0.0
0.0
0.0
0.0
0.0
0.0
0.0
0.0
0.0
0.0
0.0
0.0
0.0
0.0
0.0
0.0
0.0
0.0
0.0
0.0
0.0
0.0
0.0
0.0
0.0
0.0
0.0
0.0
0.0
0.0
0.0
0.0
0.0
0.0
0.0
0.0
0.0
0.0
0.0
0.0
0.0
0.0
0.0
0.0
0.0
0.0
0.0
0.0
0.0
0.0
0.0
0.0
0.0
0.0
0.0
0.0
0.0
0.0
0.0
0.0
0.0
0.0
0.0
0.0
0.0
0.0
0.0
0.0
0.0
0.0
0.0
0.0
0.0
0.0
0.0
0.0
0.0
0.0
0.0
0.0
0.0
0.0
0.0
0.0
0.0
0.0
0.0
0.0
0.0
0.0
0.0
0.0
0.0
0.0
0.0
0.0
0.0
0.0
0.0
0.0
0.0
0.0
0.0
0.0
0.0
0.0
0.0
0.0
0.0
0.0
0.0
0.0
0.0
0.0
0.0
0.0
0.0
0.0
0.0
0.0
0.0
0.0
0.0
0.0
0.0
0.0
0.0
0.0
0.0
0.0
0.0
0.0
0.0
0.0
0.0
0.0
0.0
0.0
0.0
0.0
0.0
0.0
0.0
0.0
0.0
0.0
0.0
0.0
0.0
0.0
0.0
0.0
0.0
0.0
0.0
0.0
0.0
0.0
0.0
0.0
0.0
0.0
0.0
0.0
0.0
0.0
0.0
0.0
0.0
0.0
0.0
0.0
0.0
0.0
0.0
0.0
0.0
0.0
0.0
0.0
0.0
0.0
0.0
0.0
0.0
0.0
0.0
0.0
0.0
0.0
0.0
0.0
0.0
0.0
0.0
0.0
0.0
0.0
0.0
0.0
0.0
0.0
10.0
10.0
0.0
0.0
0.0
0.0
0.0
0.0
0.0
0.0
0.0
0.0
0.0
0.0
0.0
0.0
0.0
0.0
0.0
0.0
0.0
0.0
0.0
0.0
0.0
0.0
0.0
0.0
0.0
0.0
0.0
0.0
0.0
0.0
0.0
0.0
0.0
0.0
0.0
0.0
10.0
10.0
0.0
0.0
0.0
0.0
0.0
0.0
0.0
0.0
0.0
0.0
0.0
0.0
0.0
0.0
0.0
0.0
0.0
0.0
0.0
0.0
0.0
0.0
0.0
0.0
0.0
0.0
0.0
0.0
0.0
0.0
0.0
0.0
0.0
0.0
0.0
0.0
0.0
0.0
0.0
0.0
0.0
0.0
0.0
0.0
0.0
0.0
0.0
0.0
0.0
0.0
0.0
0.0
0.0
0.0
0.0
0.0
0.0
0.0
0.0
0.0
0.0
0.0
0.0
0.0
0.0
0.0
0.0
0.0
0.0
0.0
0.0
0.0
0.0
0.0
0.0
0.0
0.0
0.0
0.0
0.0
0.0
0.0
0.0
0.0
0.0
0.0
0.0
0.0
0.0
0.0
0.0
0.0
0.0
0.0
0.0
0.0
0.0
0.0
0.0
0.0
0.0
0.0
0.0
0.0
0.0
0.0
0.0
0.0
0.0
0.0
0.0
0.0
0.0
0.0
0.0
0.0
0.0
0.0
0.0
0.0
0.0
0.0
0.0
0.0
0.0
0.0
0.0
0.0
0.0
0.0
0.0
0.0
0.0
0.0
0.0
0.0
0.0
0.0
0.0
0.0
0.0
0.0
0.0
0.0
0.0
0.0
0.0
0.0
0.0
0.0
0.0
0.0
0.0
0.0
0.0
0.0
0.0
0.0
0.0
0.0
0.0
0.0
0.0
0.0
0.0
0.0
0.0
0.0
0.0
0.0
0.0
0.0
0.0
0.0
0.0
0.0
0.0
0.0
0.0
0.0
0.0
0.0
0.0
0.0
0.0
0.0
0.0
0.0
0.0
0.0
0.0
0.0
0.0
0.0
0.0
0.0
0.0
0.0
0.0
0.0
0.0
0.0
0.0
0.0
0.0
0.0
0.0
0.0
0.0
0.0
0.0
0.0
0.0
0.0
0.0
0.0
0.0
0.0
0.0
0.0
0.0
0.0
0.0
0.0
0.0
0.0
0.0
0.0
0.0
0.0
0.0
0.0
0.0
0.0
0.0
0.0
0.0
0.0
0.0
0.0
0.0
0.0
0.0
0.0
0.0
0.0
0.0
0.0
0.0
0.0
0.0
0.0
0.0
0.0
0.0
0.0
0.0
0.0
0.0
0.0
0.0
0.0
0.0
0.0
0.0
0.0
0.0
0.0
0.0
0.0
0.0
0.0
0.0
0.0
0.0
0.0
0.0
0.0
0.0
0.0
0.0
0.0
0.0
0.0
0.0
0.0
0.0
0.0
0.0
0.0
0.0
0.0
0.0
0.0
0.0
0.0
0.0
0.0
0.0
0.0
0.0
0.0
0.0
0.0
0.0
0.0
0.0
0.0
0.0
0.0
0.0
0.0
0.0
0.0
0.0
0.0
0.0
0.0
0.0
0.0
0.0
0.0
0.0
0.0
0.0
0.0
0.0
0.0
0.0
0.0
0.0
0.0
0.0
0.0
0.0
0.0
0.0
0.0
0.0
0.0
0.0
0.0
0.0
0.0
0.0
0.0
0.0
0.0
0.0
0.0
0.0
0.0
0.0
0.0
0.0
0.0
0.0
0.0
0.0
0.0
0.0
0.0
0.0
0.0
0.0
0.0
0.0
0.0
0.0
0.0
0.0
0.0
0.0
0.0
0.0
0.0
0.0
0.0
0.0
0.0
0.0
0.0
0.0
0.0
0.0
0.0
0.0
0.0
0.0
0.0
0.0

SCALARS concentration_t1 double 1
LOOKUP_TABLE default
0.0
0.0
0.0
0.0
0.0
0.0
0.0
0.0
0.0
0.0
0.0
0.0
0.0
0.0
0.0
0.0
0.0
0.0
0.0
0.0
0.0
0.0
0.0
0.0
0.0
0.0
0.0
0.0
0.0
0.0
0.0
0.0
0.0
0.0
0.0
0.0
0.0
0.0
0.0
0.0
0.0
0.0
0.0
0.0
0.0
4.294600772216717e-12
3.8546707484644913e-10
8.883929897089872e-09
1.0245260161640699e-08
1.8322511302730197e-09
8.974839164795756e-11
0.0
0.0
0.0
0.0
0.0
0.0
0.0
0.0
0.0
0.0
0.0
0.0
0.0
0.0
0.0
0.0
0.0
0.0
0.0
0.0
0.0
0.0
0.0
0.0
0.0
0.0
0.0
0.0
0.0
0.0
0.0
0.0
0.0
4.33028997530993e-12
5.813176363832962e-10
2.6284468091816005e-08
4.113314663212595e-07
5.031438975548594e-07
1.2957776999373819e-07
1.2471545892021578e-08
4.1368787729141654e-10
0.0
0.0
0.0
0.0
0.0
0.0
0.0
0.0
0.0
0.0
0.0
0.0
0.0
0.0
0.0
0.0
0.0
0.0
0.0
0.0
0.0
0.0
0.0
0.0
0.0
0.0
0.0
0.0
0.0
0.0
0.0
2.865368470504596e-12
5.124661279333284e-10
3.458074946815585e-08
1.05131184237213e-06
1.2589592049431688e-05
1.6222594526801103e-05
5.362260646087988e-06
7.607014333235843e-07
4.993533544851003e-08
1.2513771800615705e-09
0.0
0.0
0.0
0.0
0.0
0.0
0.0
0.0
0.0
0.0
0.0
0.0
0.0
0.0
0.0
0.0
0.0
0.0
0.0
0.0
0.0
0.0
0.0
0.0
0.0
0.0
0.0
0.0
0.0
1.3001311785835256e-12
2.907420332434605e-10
2.612176426281146e-08
1.182457601074794e-06
2.722479304720198e-05
0.00026659420047783007
0.00035969479965100126
0.00014333987480703023
2.663896074909398e-05
2.5942593110029957e-06
1.2900208166358815e-07
2.595654383462891e-09
0.0
0.0
0.0
0.0
0.0
0.0
0.0
0.0
0.0
0.0
0.0
0.0
0.0
0.0
0.0
0.0
0.0
0.0
0.0
0.0
0.0
0.0
0.0
0.0
0.0
0.0
0.0
4.096673727531193e-13
1.1006906956416719e-10
1.2367007472197521e-08
7.450517551424206e-07
2.548432862577851e-05
0.00047468173123796543
0.003966949336242615
0.0055738428970256845
0.0025740803096381453
0.0005872629866199247
7.535952141878256e-05
5.572016780090175e-06
2.2266903815587413e-07
3.73889274072217e-09
0.0
0.0
0.0
0.0
0.0
0.0
0.0
0.0
0.0
0.0
0.0
0.0
0.0
0.0
0.0
0.0
0.0
0.0
0.0
0.0
0.0
0.0
0.0
0.0
0.0
0.0
2.781312365320276e-11
3.757893001657936e-09
2.8330518349142015e-07
1.2897162951659451e-05
0.0003562117998958817
0.005602669191688937
0.041193123858614004
0.059975534500505495
0.03122190343889343
0.00838582050387654
0.0013275000006531213
0.00012954443023291797
7.70014911627697e-06
2.5672595810088093e-07
3.693025833336976e-09
0.0
0.0
0.0
0.0
0.0
0.0
0.0
0.0
0.0
0.0
0.0
0.0
0.0
0.0
0.0
0.0
0.0
0.0
0.0
0.0
0.0
0.0
0.0
0.0
0.0
7.168382406692099e-10
6.512554311142955e-08
3.7168513017278666e-06
0.00013679176367954423
0.0031876999773686318
0.04368678992850118
0.2893671375570922
0.43448224211663783
0.24958141766218378
0.07655335326999335
0.014314379387547836
0.0017237079727587881
0.00013509968222432452
6.6900228779131915e-06
1.9076370977050212e-07
2.393817299171336e-09
0.0
0.0
0.0
0.0
0.0
0.0
0.0
0.0
0.0
0.0
0.0
0.0
0.0
0.0
0.0
0.0
0.0
0.0
0.0
0.0
0.0
0.0
0.0
0.0
8.44844200217571e-09
5.842557819516363e-07
2.7095154001203778e-05
0.0008450880698753839
0.017199392888173955
0.21097260774994683
1.2857763207640027
1.9807469766981194
1.2318882327898666
0.42052655829968766
0.08978238533030815
0.012731346966635514
0.0012261341695737429
7.968336806872943e-05
3.3581390919422413e-06
8.311828782829081e-08
9.195087686567646e-10
0.0
0.0
0.0
0.0
0.0
0.0
0.0
0.0
0.0
0.0
0.0
0.0
0.0
0.0
0.0
0.0
0.0
0.0
0.0
0.0
0.0
0.0
0.0
4.1286940861922686e-08
2.363539185275232e-06
9.453828426511523e-05
0.0026174089202269375
0.0483245914665988
0.5476913355502936
3.1498855271211332
4.942356732292049
3.251477094800319
1.1983545823764277
0.28151344107237897
0.044910034984022615
0.005009695415612183
0.000393066548791449
2.134531344015678e-05
7.663205141554562e-07
1.640571752920043e-08
1.5894001984537981e-10
0.0
0.0
0.0
0.0
0.0
0.0
0.0
0.0
0.0
0.0
0.0
0.0
0.0
0.0
0.0
0.0
0.0
0.0
0.0
0.0
0.0
0.0
4.1286940861922686e-08
2.363539185275232e-06
9.453828426511523e-05
0.0026174089202269375
0.0483245914665988
0.5476913355502936
3.1498855271211332
4.942356732292049
3.251477094800319
1.1983545823764277
0.28151344107237897
0.044910034984022615
0.005009695415612183
0.000393066548791449
2.134531344015678e-05
7.663205141554562e-07
1.640571752920043e-08
1.5894001984537981e-10
0.0
0.0
0.0
0.0
0.0
0.0
0.0
0.0
0.0
0.0
0.0
0.0
0.0
0.0
0.0
0.0
0.0
0.0
0.0
0.0
0.0
0.0
8.44844200217571e-09
5.842557819516363e-07
2.7095154001203778e-05
0.0008450880698753839
0.017199392888173955
0.21097260774994683
1.2857763207640027
1.9807469766981194
1.2318882327898666
0.42052655829968766
0.08978238533030815
0.012731346966635514
0.0012261341695737429
7.968336806872943e-05
3.3581390919422413e-06
8.311828782829081e-08
9.195087686567646e-10
0.0
0.0
0.0
0.0
0.0
0.0
0.0
0.0
0.0
0.0
0.0
0.0
0.0
0.0
0.0
0.0
0.0
0.0
0.0
0.0
0.0
0.0
0.0
7.168382406692099e-10
6.512554311142955e-08
3.7168513017278666e-06
0.00013679176367954423
0.0031876999773686318
0.04368678992850118
0.2893671375570922
0.43448224211663783
0.24958141766218378
0.07655335326999335
0.014314379387547836
0.0017237079727587881
0.00013509968222432452
6.6900228779131915e-06
1.9076370977050212e-07
2.393817299171336e-09
0.0
0.0
0.0
0.0
0.0
0.0
0.0
0.0
0.0
0.0
0.0
0.0
0.0
0.0
0.0
0.0
0.0
0.0
0.0
0.0
0.0
0.0
0.0
0.0
2.781312365320276e-11
3.757893001657936e-09
2.8330518349142015e-07
1.2897162951659451e-05
0.0003562117998958817
0.005602669191688937
0.041193123858614004
0.059975534500505495
0.03122190343889343
0.00838582050387654
0.0013275000006531213
0.00012954443023291797
7.70014911627697e-06
2.5672595810088093e-07
3.693025833336976e-09
0.0
0.0
0.0
0.0
0.0
0.0
0.0
0.0
0.0
0.0
0.0
0.0
0.0
0.0
0.0
0.0
0.0
0.0
0.0
0.0
0.0
0.0
0.0
0.0
0.0
4.096673727531193e-13
1.1006906956416719e-10
1.2367007472197521e-08
7.450517551424206e-07
2.548432862577851e-05
0.00047468173123796543
0.003966949336242615
0.0055738428970256845
0.0025740803096381453
0.0005872629866199247
7.535952141878256e-05
5.572016780090175e-06
2.2266903815587413e-07
3.73889274072217e-09
0.0
0.0
0.0
0.0
0.0
0.0
0.0
0.0
0.0
0.0
0.0
0.0
0.0
0.0
0.0
0.0
0.0
0.0
0.0
0.0
0.0
0.0
0.0
0.0
0.0
0.0
0.0
1.3001311785835256e-12
2.907420332434605e-10
2.612176426281146e-08
1.182457601074794e-06
2.722479304720198e-05
0.00026659420047783007
0.00035969479965100126
0.00014333987480703023
2.663896074909398e-05
2.5942593110029957e-06
1.2900208166358815e-07
2.595654383462891e-09
0.0
0.0
0.0
0.0
0.0
0.0
0.0
0.0
0.0
0.0
0.0
0.0
0.0
0.0
0.0
0.0
0.0
0.0
0.0
0.0
0.0
0.0
0.0
0.0
0.0
0.0
0.0
0.0
0.0
2.865368470504596e-12
5.124661279333284e-10
3.458074946815585e-08
1.05131184237213e-06
1.2589592049431688e-05
1.6222594526801103e-05
5.362260646087988e-06
7.607014333235843e-07
4.993533544851003e-08
1.2513771800615705e-09
0.0
0.0
0.0
0.0
0.0
0.0
0.0
0.0
0.0
0.0
0.0
0.0
0.0
0.0
0.0
0.0
0.0
0.0
0.0
0.0
0.0
0.0
0.0
0.0
0.0
0.0
0.0
0.0
0.0
0.0
0.0
4.33028997530993e-12
5.813176363832962e-10
2.6284468091816005e-08
4.113314663212595e-07
5.031438975548594e-07
1.2957776999373819e-07
1.2471545892021578e-08
4.1368787729141654e-10
0.0
0.0
0.0
0.0
0.0
0.0
0.0
0.0
0.0
0.0
0.0
0.0
0.0
0.0
0.0
0.0
0.0
0.0
0.0
0.0
0.0
0.0
0.0
0.0
0.0
0.0
0.0
0.0
0.0
0.0
0.0
0.0
0.0
4.294600772216717e-12
3.8546707484644913e-10
8.883929897089872e-09
1.0245260161640699e-08
1.8322511302730197e-09
8.974839164795756e-11
0.0
0.0
0.0
0.0
0.0
0.0
0.0
0.0
0.0
0.0
0.0
0.0
0.0
0.0
0.0
0.0
0.0
0.0
0.0
0.0
0.0
0.0
0.0
0.0
0.0
0.0
0.0
0.0
0.0
0.0
0.0
0.0
0.0
0.0
0.0
0.0
0.0
0.0
0.0
0.0
0.0
0.0
0.0
0.0
0.0
0.0
0.0
0.0
0.0
0.0
0.0
0.0
0.0
0.0
0.0
0.0
0.0
0.0
0.0
0.0
0.0
0.0
0.0
0.0
0.0
0.0
0.0
0.0
0.0

SCALARS concentration_t2 double 1
LOOKUP_TABLE default
0.0
0.0
0.0
0.0
0.0
0.0
0.0
0.0
0.0
0.0
0.0
0.0
0.0
0.0
0.0
0.0
0.0
0.0
0.0
0.0
0.0
0.0
0.0
0.0
0.0
0.0
0.0
0.0
0.0
0.0
0.0
0.0
0.0
0.0
0.0
0.0
0.0
0.0
0.0
0.0
0.0
3.513154708242036e-13
1.3607250523355184e-11
3.8634970106905156e-10
7.884853581320813e-09
1.108359888114006e-07
9.892619472062522e-07
4.736530042776994e-06
7.900593344269356e-06
6.2092664164268e-06
2.8768908979276136e-06
8.80562058662695e-07
1.894138337561257e-07
2.962713422021018e-08
3.4259167152025857e-09
2.937439845116183e-10
1.8485398942451958e-11
8.312775215004163e-13
2.5328802202093358e-14
4.691641041408023e-16
3.9931401478162e-18
0.0
0.0
0.0
0.0
0.0
0.0
0.0
0.0
0.0
0.0
0.0
0.0
0.0
0.0
0.0
0.0
0.0
0.0
0.0
0.0
6.870628506675637e-12
2.339886975474553e-10
5.936361063980359e-09
1.0974797742842866e-07
1.4147917835392868e-06
1.1733334189821393e-05
5.328450472394912e-05
9.050800929455579e-05
7.503814666451455e-05
3.7331261416025395e-05
1.2432507296792053e-05
2.9470155406687985e-06
5.151513806161038e-07
6.770331347016065e-08
6.7404118404129826e-09
5.06904709844291e-10
2.8389794412084013e-11
1.1496190143884553e-12
3.184869605864429e-14
5.4073311946259e-16
4.247550738951305e-18
0.0
0.0
0.0
0.0
0.0
0.0
0.0
0.0
0.0
0.0
0.0
0.0
0.0
0.0
0.0
0.0
0.0
0.0
0.0
1.0342656769943194e-10
3.1470172109226103e-09
7.224270121127915e-08
1.2222192485370484e-06
1.4571702923659478e-05
0.00011308995102942828
0.0004899757427457774
0.0008459445662904151
0.0007360631302068519
0.0003905753417408077
0.000140372240589574
3.6301019735041757e-05
7.003723504051622e-06
1.029687188755864e-06
1.1658412513493146e-07
1.0184235281627835e-08
6.817624143409374e-10
3.4385305076856486e-11
1.2659433250509906e-12
3.214190435832303e-14
5.035347857307218e-16
3.671013381032706e-18
0.0
0.0
0.0
0.0
0.0
0.0
0.0
0.0
0.0
0.0
0.0
0.0
0.0
0.0
0.0
0.0
0.0
0.0
1.1972597434637751e-09
3.298477590523883e-08
6.926637994115367e-07
1.0823168137977446e-05
0.00012028569983881044
0.0008796113040282928
0.0036563478451266404
0.006404519009629241
0.005819012948497756
0.0032721963158872155
0.0012594503445643712
0.0003521302143896297
7.417767047850952e-05
1.2039891547886293e-05
1.5249158142120407e-06
1.5146306425076781e-07
1.1774199134473901e-08
7.095542587653717e-10
3.252423710102835e-11
1.0969680988005104e-12
2.568874402010653e-14
3.7336138197408444e-16
2.5381854291018382e-18
0.0
0.0
0.0
0.0
0.0
0.0
0.0
0.0
0.0
0.0
0.0
0.0
0.0
0.0
0.0
0.0
0.0
1.054146157721544e-08
2.659532289310831e-07
5.157932631047929e-06
7.5052063980365e-05
0.000783161121394506
0.00543040442761863
0.021766873474104328
0.03861470610723531
0.036465706613472586
0.021602141670900046
0.008842587028428961
0.002651419792599507
0.000604102386847783
0.00010704663453182134
1.4962331270576688e-05
1.661532757904401e-06
1.467658524098647e-07
1.0263543853604561e-08
5.617222905276069e-10
2.3570857307245055e-11
7.327307933643088e-13
1.5908186313494583e-14
2.154539756140781e-16
1.3710419907890817e-18
0.0
0.0
0.0
0.0
0.0
0.0
0.0
0.0
0.0
0.0
0.0
0.0
0.0
0.0
0.0
0.0
6.907550776683259e-08
1.6123433755978391e-06
2.9137235785290607e-05
0.00039792183419614296
0.0039259653114661385
0.025971602118841936
0.10086757076452786
0.18092459471441483
0.17677851438611797
0.10968444535510444
0.04742900143259418
0.015135207687378274
0.0036972561589113896
0.0007080545427014418
0.00010793141354052923
1.3210970883805596e-05
1.3029786895981215e-06
1.0340023704594505e-07
6.558128076931465e-09
3.2813825834528114e-10
1.2674308941646874e-11
3.648113460497477e-13
7.371564097281472e-15
9.334412216351091e-17
5.576211192780752e-19
0.0
0.0
0.0
0.0
0.0
0.0
0.0
0.0
0.0
0.0
0.0
0.0
0.0
0.0
0.0
3.2463959532378066e-07
7.082764064869973e-06
0.0001203604723814831
0.0015555373386563125
0.014619186999618478
0.09287269212476947
0.3512039197058039
0.6358305278994459
0.6396995204161506
0.4131315706809326
0.18736261519366768
0.06312115326961357
0.016384120760373808
0.0033570526862091287
0.0005517317837418936
7.346211453120339e-05
7.96524998622416e-06
7.038989075665627e-07
5.0526573325241606e-08
2.922002319611081e-09
1.3422712028576405e-10
4.788268553175455e-12
1.2795776177933794e-13
2.411677714577038e-15
2.8603183036653075e-17
1.6064431137096904e-19
0.0
0.0
0.0
0.0
0.0
0.0
0.0
0.0
0.0
0.0
0.0
0.0
0.0
0.0
1.0293011386026569e-06
2.124444741583302e-05
0.00034326969758290225
0.004241344096844742
0.038322865180956095
0.23568268435843898
0.8727699987432712
1.5916205084135666
1.6391133595288832
1.0933159766808649
0.5154023312111475
0.18149768220494078
0.04951634243333553
0.010726509657549047
0.0018759858564099086
0.0002677937977816544
3.140237039615432e-05
3.032780492562649e-06
2.4098429097694247e-07
1.5678572951176327e-08
8.274950030963543e-10
3.490075748530742e-11
1.1491932677701799e-12
2.8481863522214605e-14
5.000084581795945e-16
5.545425702278333e-18
2.922934838766138e-20
0.0
0.0
0.0
0.0
0.0
0.0
0.0
0.0
0.0
0.0
0.0
0.0
0.0
1.9865642548009335e-06
3.951083558176621e-05
0.0006175437256775096
0.00741027528417966
0.06528801961981878
0.3933771914466653
1.4380157084170038
2.634156763973172
2.752707093813565
1.8741714639230138
0.905804094815136
0.3283305776014912
0.09257530279598135
0.020816714777817116
0.0037977949667009226
0.0005687536198168443
7.044037237067567e-05
7.243174635558959e-06
6.188268902532578e-07
4.382178487154262e-08
2.5569956170590264e-09
1.2170344503152062e-10
4.651587903534551e-12
1.394081783519503e-13
3.157377958541885e-15
5.0840127126970135e-17
5.189788209429173e-19
2.5261929908449724e-21
0.0
0.0
0.0
0.0
0.0
0.0
0.0
0.0
0.0
0.0
0.0
0.0
1.9865642548009335e-06
3.951083558176621e-05
0.0006175437256775096
0.00741027528417966
0.06528801961981878
0.3933771914466653
1.4380157084170038
2.634156763973172
2.752707093813565
1.8741714639230138
0.905804094815136
0.3283305776014912
0.09257530279598135
0.020816714777817116
0.0037977949667009226
0.0005687536198168443
7.044037237067567e-05
7.243174635558959e-06
6.188268902532578e-07
4.382178487154262e-08
2.5569956170590264e-09
1.2170344503152062e-10
4.651587903534551e-12
1.394081783519503e-13
3.157377958541885e-15
5.0840127126970135e-17
5.189788209429173e-19
2.5261929908449724e-21
0.0
0.0
0.0
0.0
0.0
0.0
0.0
0.0
0.0
0.0
0.0
0.0
1.0293011386026569e-06
2.124444741583302e-05
0.00034326969758290225
0.004241344096844742
0.038322865180956095
0.23568268435843898
0.8727699987432712
1.5916205084135666
1.6391133595288832
1.0933159766808649
0.5154023312111475
0.18149768220494078
0.04951634243333553
0.010726509657549047
0.0018759858564099086
0.0002677937977816544
3.140237039615432e-05
3.032780492562649e-06
2.4098429097694247e-07
1.5678572951176327e-08
8.274950030963543e-10
3.490075748530742e-11
1.1491932677701799e-12
2.8481863522214605e-14
5.000084581795945e-16
5.545425702278333e-18
2.922934838766138e-20
0.0
0.0
0.0
0.0
0.0
0.0
0.0
0.0
0.0
0.0
0.0
0.0
0.0
3.2463959532378066e-07
7.082764064869973e-06
0.0001203604723814831
0.0015555373386563125
0.014619186999618478
0.09287269212476947
0.3512039197058039
0.6358305278994459
0.6396995204161506
0.4131315706809326
0.18736261519366768
0.06312115326961357
0.016384120760373808
0.0033570526862091287
0.0005517317837418936
7.346211453120339e-05
7.96524998622416e-06
7.038989075665627e-07
5.0526573325241606e-08
2.922002319611081e-09
1.3422712028576405e-10
4.788268553175455e-12
1.2795776177933794e-13
2.411677714577038e-15
2.8603183036653075e-17
1.6064431137096904e-19
0.0
0.0
0.0
0.0
0.0
0.0
0.0
0.0
0.0
0.0
0.0
0.0
0.0
0.0
6.907550776683259e-08
1.6123433755978391e-06
2.9137235785290607e-05
0.00039792183419614296
0.0039259653114661385
0.025971602118841936
0.10086757076452786
0.18092459471441483
0.17677851438611797
0.10968444535510444
0.04742900143259418
0.015135207687378274
0.0036972561589113896
0.0007080545427014418
0.00010793141354052923
1.3210970883805596e-05
1.3029786895981215e-06
1.0340023704594505e-07
6.558128076931465e-09
3.2813825834528114e-10
1.2674308941646874e-11
3.648113460497477e-13
7.371564097281472e-15
9.334412216351091e-17
5.576211192780752e-19
0.0
0.0
0.0
0.0
0.0
0.0
0.0
0.0
0.0
0.0
0.0
0.0
0.0
0.0
0.0
1.054146157721544e-08
2.659532289310831e-07
5.157932631047929e-06
7.5052063980365e-05
0.000783161121394506
0.00543040442761863
0.021766873474104328
0.03861470610723531
0.036465706613472586
0.021602141670900046
0.008842587028428961
0.002651419792599507
0.000604102386847783
0.00010704663453182134
1.4962331270576688e-05
1.661532757904401e-06
1.467658524098647e-07
1.0263543853604561e-08
5.617222905276069e-10
2.3570857307245055e-11
7.327307933643088e-13
1.5908186313494583e-14
2.154539756140781e-16
1.3710419907890817e-18
0.0
0.0
0.0
0.0
0.0
0.0
0.0
0.0
0.0
0.0
0.0
0.0
0.0
0.0
0.0
0.0
1.1972597434637751e-09
3.298477590523883e-08
6.926637994115367e-07
1.0823168137977446e-05
0.00012028569983881044
0.0008796113040282928
0.0036563478451266404
0.006404519009629241
0.005819012948497756
0.0032721963158872155
0.0012594503445643712
0.0003521302143896297
7.417767047850952e-05
1.2039891547886293e-05
1.5249158142120407e-06
1.5146306425076781e-07
1.1774199134473901e-08
7.095542587653717e-10
3.252423710102835e-11
1.0969680988005104e-12
2.568874402010653e-14
3.7336138197408444e-16
2.5381854291018382e-18
0.0
0.0
0.0
0.0
0.0
0.0
0.0
0.0
0.0
0.0
0.0
0.0
0.0
0.0
0.0
0.0
0.0
1.0342656769943194e-10
3.1470172109226103e-09
7.224270121127915e-08
1.2222192485370484e-06
1.4571702923659478e-05
0.00011308995102942828
0.0004899757427457774
0.0008459445662904151
0.0007360631302068519
0.0003905753417408077
0.000140372240589574
3.6301019735041757e-05
7.003723504051622e-06
1.029687188755864e-06
1.1658412513493146e-07
1.0184235281627835e-08
6.817624143409374e-10
3.4385305076856486e-11
1.2659433250509906e-12
3.214190435832303e-14
5.035347857307218e-16
3.671013381032706e-18
0.0
0.0
0.0
0.0
0.0
0.0
0.0
0.0
0.0
0.0
0.0
0.0
0.0
0.0
0.0
0.0
0.0
0.0
6.870628506675637e-12
2.339886975474553e-10
5.936361063980359e-09
1.0974797742842866e-07
1.4147917835392868e-06
1.1733334189821393e-05
5.328450472394912e-05
9.050800929455579e-05
7.503814666451455e-05
3.7331261416025395e-05
1.2432507296792053e-05
2.9470155406687985e-06
5.151513806161038e-07
6.770331347016065e-08
6.7404118404129826e-09
5.06904709844291e-10
2.8389794412084013e-11
1.1496190143884553e-12
3.184869605864429e-14
5.4073311946259e-16
4.247550738951305e-18
0.0
0.0
0.0
0.0
0.0
0.0
0.0
0.0
0.0
0.0
0.0
0.0
0.0
0.0
0.0
0.0
0.0
0.0
0.0
3.513154708242036e-13
1.3607250523355184e-11
3.8634970106905156e-10
7.884853581320813e-09
1.108359888114006e-07
9.892619472062522e-07
4.736530042776994e-06
7.900593344269356e-06
6.2092664164268e-06
2.8768908979276136e-06
8.80562058662695e-07
1.894138337561257e-07
2.962713422021018e-08
3.4259167152025857e-09
2.937439845116183e-10
1.8485398942451958e-11
8.312775215004163e-13
2.5328802202093358e-14
4.691641041408023e-16
3.9931401478162e-18
0.0
0.0
0.0
0.0
0.0
0.0
0.0
0.0
0.0
0.0
0.0
0.0
0.0
0.0
0.0
0.0
0.0
0.0
0.0
0.0
0.0
0.0
0.0
0.0
0.0
0.0
0.0
0.0
0.0
0.0
0.0
0.0
0.0
0.0
0.0
0.0
0.0
0.0
0.0
0.0
0.0
0.0
0.0
0.0
0.0
0.0
0.0
0.0
0.0
0.0
0.0
0.0
0.0
0.0
0.0
0.0
0.0
0.0
0.0

SCALARS concentration_t3 double 1
LOOKUP_TABLE default
0.0
0.0
0.0
0.0
0.0
0.0
0.0
0.0
0.0
0.0
0.0
0.0
0.0
0.0
0.0
0.0
0.0
0.0
0.0
0.0
0.0
0.0
0.0
0.0
0.0
0.0
0.0
0.0
0.0
0.0
0.0
0.0
0.0
0.0
0.0
0.0
0.0
0.0
0.0
0.0
0.0
1.8231622789777083e-10
3.016709299405164e-09
3.950112638963466e-08
4.015607115255016e-07
3.0411209828433184e-06
1.6115522531653096e-05
5.4248811725984056e-05
0.00010224632183097819
0.00011736434303925405
9.078783673236896e-05
5.087038708615441e-05
2.168346289512134e-05
7.272832931362513e-06
1.9658086086261943e-06
4.3553971429336633e-07
8.006023942444848e-08
1.2312390528400229e-08
1.5926927485493542e-09
1.7377555879504023e-10
1.599828820527204e-11
1.2402348806490024e-12
8.05869023587986e-14
4.3551937831778936e-15
1.9350539588684204e-16
6.949601627075286e-18
1.967859548849679e-19
4.230005713243016e-21
6.488146779857883e-23
6.3273503555856205e-25
2.948856544395322e-27
0.0
0.0
0.0
0.0
0.0
0.0
0.0
0.0
0.0
0.0
1.5235886223801094e-09
2.398978828170777e-08
2.9980668422733546e-07
2.921196250754916e-06
2.1310303043290376e-05
0.00010953945600696844
0.0003620398415965056
0.0006865865287792486
0.0008055090820940063
0.0006426722746613037
0.00037367659816551964
0.00016607422859264405
5.832606469241886e-05
1.6575638813083628e-05
3.877544854215062e-06
7.559559642573648e-07
1.239108006361408e-07
1.7178153326769663e-08
2.0213160409406098e-09
2.0215102847092428e-10
1.7170571530827407e-11
1.2350850190913674e-12
7.483214597876816e-14
3.7875483631407646e-15
1.5821841307456558e-16
5.3610206173442455e-18
1.4367025833199913e-19
2.9311198611914647e-21
4.27817609368438e-23
3.9795712282826985e-25
1.7729365132628508e-27
0.0
0.0
0.0
0.0
0.0
0.0
0.0
0.0
0.0
1.0561439365061695e-08
1.5868661363830232e-07
1.8972789030550377e-06
1.775577528313338e-05
0.00012500335588376072
0.0006242795731334821
0.002028280830126256
0.0038685783232969163
0.004633380498427042
0.0038070126117386287
0.00229291112422959
0.0010603463525084853
0.00038902123570062224
0.00011592509127915181
2.8543742764913144e-05
5.88078647785208e-06
1.0230937462913742e-06
1.5126318969310853e-07
1.908480092420704e-08
2.0592580845670704e-09
1.9007372252570116e-10
1.4983937235850287e-11
1.0051984180272888e-12
5.704581049517939e-14
2.7147645974227732e-15
1.0699215997095146e-16
3.430816321236368e-18
8.72528048959832e-20
1.6935858269393855e-21
2.3572067673347158e-23
2.095380133147262e-25
8.93835028847199e-28
0.0
0.0
0.0
0.0
0.0
0.0
0.0
0.0
6.050819309999426e-08
8.707593409748344e-07
9.994053769344391e-06
9.011575714629018e-05
0.0006140147749772125
0.0029867223310603348
0.009555410858998113
0.018318418853818866
0.02235693624908349
0.018872261776825987
0.011741579077909441
0.005632721233529537
0.0021516148521740584
0.0006698725270714789
0.00017292429817777829
3.74872514000887e-05
6.888977862298329e-06
1.080473075038019e-06
1.4530210865603282e-07
1.6800867406783516e-08
1.6720795407292163e-09
1.4315035231830739e-10
1.0518138071324593e-11
6.605053028439074e-13
3.5222629188950306e-14
1.5804904984824068e-15
5.891345610505975e-17
1.7917543628495577e-18
4.332978652185032e-20
8.01594542484833e-22
1.0656594072021195e-23
9.066052325723579e-26
3.708053571195471e-28
0.0
0.0
0.0
0.0
0.0
0.0
0.0
2.818292243616438e-07
3.899331629533261e-06
4.3114827792800555e-05
0.00037580676666355015
0.002485659947437625
0.011806926775276873
0.03725956787451637
0.07175095857158097
0.08906574493897365
0.0770468463520787
0.04937381399245437
0.024492353025421507
0.009707143197776647
0.0031457081487219164
0.0008479326248367555
0.00019257418121787338
3.7205065979612745e-05
6.158156960629199e-06
8.776648398287938e-07
1.080585498475777e-07
1.1512836736326167e-08
1.0616754737967552e-09
8.463148838246637e-11
5.815097316241936e-12
3.4280095370990415e-13
1.7219966915814548e-14
7.301281799907296e-16
2.5789695499779278e-17
7.451708872162507e-19
1.7160842430008332e-20
3.029912400648067e-22
3.852079819684636e-24
3.139879102246227e-26
1.232593984884921e-28
0.0
0.0
0.0
0.0
0.0
0.0
1.0436592035596406e-06
1.3940868875097546e-05
0.0001490820682402958
0.0012607469017333526
0.008121639869949439
0.03777770377644242
0.11780280889484998
0.2277337945337932
0.2869352629665895
0.25366176091097375
0.1668916363107984
0.08530308186626012
0.034943864166861495
0.011738427259034928
0.0032894504436395897
0.0007789864910520194
0.00015742783953664547
2.735062451153084e-05
4.106927141163939e-06
5.349788292245755e-07
6.058890973888873e-08
5.971204018598522e-09
5.118471454083856e-10
3.8091643487343106e-11
2.4529151210442737e-12
1.3598935135687391e-13
6.444648425246864e-15
2.5853244890409854e-16
8.66267011870204e-18
2.3801342573769255e-19
5.223916544578155e-21
8.808527183565034e-23
1.0715870927134984e-24
8.373254878360602e-27
3.156411804937686e-29
0.0
0.0
0.0
0.0
0.0
2.9817990998150987e-06
3.864508108388006e-05
0.00040159660101788834
0.003309558777238654
0.02084715519251777
0.09527146005092278
0.2941507565240977
0.5704653165573311
0.7278268091867597
0.6553730951634703
0.4409771837601371
0.23124425194289447
0.097454479105727
0.033767372722705774
0.009785755485347852
0.0024029740898931116
0.0005049898209119538
9.151269251056812e-05
1.4381368419038947e-05
1.9678879040196147e-06
2.3509279884842823e-07
2.4554198578808384e-08
2.2425625777760237e-09
1.7891847353695874e-10
1.2441195616129182e-11
7.511959709873036e-13
3.917385662564649e-14
1.7513637722811836e-15
6.645730847929978e-17
2.1115866164523067e-18
5.514329150890699e-20
1.1528209138155252e-21
1.8553567401809094e-23
2.1584650350895083e-25
1.6158342782598005e-27
5.8456696664457354e-30
0.0
0.0
0.0
0.0
6.313791121773956e-06
7.992007119919085e-05
0.0008122009512227406
0.006560801880125037
0.040620733637674475
0.1831530316655661
0.5612724861993427
1.0911111341217452
1.4054050470539152
1.2834577865711811
0.8786709549441368
0.47001566491340707
0.20251673126652958
0.07189800605477835
0.021395536032697653
0.00540723654403163
0.0011723571516707586
0.0002197614438092925
3.582746741685351e-05
5.1021196221051135e-06
6.366150148658257e-07
6.972714967591912e-08
6.7089030188450094e-09
5.66865521034621e-10
4.200079417564405e-11
2.7216464806026722e-12
1.5362441604787153e-13
7.511074068569865e-15
3.156828554389304e-16
1.1289638599324397e-17
3.388740812833897e-19
8.378954181357355e-21
1.6620986160408804e-22
2.5433853157372707e-24
2.818898432627822e-26
2.014251705145003e-28
6.968569819203629e-31
0.0
0.0
0.0
9.417565314302797e-06
0.00011755368862550607
0.001179096895805929
0.009414175681036148
0.057709971268154685
0.2582088310878879
0.7879400300125948
1.533806286144234
1.9863632997154264
1.8287568283937612
1.2646095283393188
0.6843612662087095
0.2987459148406209
0.10760644791465532
0.032535332969772346
0.008367349435631954
0.001849184534734098
0.00035398211559016323
5.9053977873069376e-05
8.625658087668079e-06
1.1067941665837348e-06
1.250380431726194e-07
1.2452025234881322e-08
1.093335713348311e-09
8.457588128526629e-11
5.7535036637873634e-12
3.4318671154764753e-13
1.7872837284536838e-14
8.079713031048616e-16
3.1460442921591887e-17
1.0442921454331477e-18
2.914604681885405e-20
6.712395224653502e-22
1.2422975513122762e-23
1.7766235673271983e-25
1.8433971908706102e-27
1.2352899956794951e-29
4.0151316409815916e-32
0.0
0.0
9.417565314302797e-06
0.00011755368862550607
0.001179096895805929
0.009414175681036148
0.057709971268154685
0.2582088310878879
0.7879400300125948
1.533806286144234
1.9863632997154264
1.8287568283937612
1.2646095283393188
0.6843612662087095
0.2987459148406209
0.10760644791465532
0.032535332969772346
0.008367349435631954
0.001849184534734098
0.00035398211559016323
5.9053977873069376e-05
8.625658087668079e-06
1.1067941665837348e-06
1.250380431726194e-07
1.2452025234881322e-08
1.093335713348311e-09
8.457588128526629e-11
5.7535036637873634e-12
3.4318671154764753e-13
1.7872837284536838e-14
8.079713031048616e-16
3.1460442921591887e-17
1.0442921454331477e-18
2.914604681885405e-20
6.712395224653502e-22
1.2422975513122762e-23
1.7766235673271983e-25
1.8433971908706102e-27
1.2352899956794951e-29
4.0151316409815916e-32
0.0
0.0
6.313791121773956e-06
7.992007119919085e-05
0.0008122009512227406
0.006560801880125037
0.040620733637674475
0.1831530316655661
0.5612724861993427
1.0911111341217452
1.4054050470539152
1.2834577865711811
0.8786709549441368
0.47001566491340707
0.20251673126652958