# vtk DataFile Version 3.0
Solut Transport Simulation Results
ASCII
DATASET STRUCTURED_POINTS
DIMENSIONS 40 25 1
ORIGIN 0 0 0
SPACING 2.5641025641025643 2.0833333333333335 1.0
POINT_DATA 1000

SCALARS concentration_t0 double 1
LOOKUP_TABLE default
0.0
0.0
0.0
0.0
0.0
0.0
0.0
0.0
0.0
0.0
0.0
0.0
0.0
0.0
0.0
0.0
0.0
0.0
0.0
0.0
0.0
0.0
0.0
0.0
0.0
0.0
0.0
0.0
0.0
0.0
0.0
0.0
0.0
0.0
0.0
0.0
0.0
0.0
0.0
0.0
0.0
0.0
0.0
0.0
0.0
0.0
0.0
0.0
0.0
0.0
0.0
0.0
0.0
0.0
0.0
0.0
0.0
0.0
0.0
0.0
0.0
0.0
0.0
0.0
0.0
0.0
0.0
0.0
0.0
0.0
0.0
0.0
0.0
0.0
0.0
0.0
0.0
0.0
0.0
0.0
0.0
0.0
0.0
0.0
0.0
0.0
0.0
0.0
0.0
0.0
0.0
0.0
0.0
0.0
0.0
0.0
0.0
0.0
0.0
0.0
0.0
0.0
0.0
0.0
0.0
0.0
0.0
0.0
0.0
0.0
0.0
0.0
0.0
0.0
0.0
0.0
0.0
0.0
0.0
0.0
0.0
0.0
0.0
0.0
0.0
0.0
0.0
0.0
0.0
0.0
0.0
0.0
0.0
0.0
0.0
0.0
0.0
0.0
0.0
0.0
0.0
0.0
0.0
0.0
0.0
0.0
0.0
0.0
0.0
0.0
0.0
0.0
0.0
0.0
0.0
0.0
0.0
0.0
0.0
0.0
0.0
0.0
0.0
0.0
0.0
0.0
0.0
0.0
0.0
0.0
0.0
0.0
0.0
0.0
0.0
0.0
0.0
0.0
0.0
0.0
0.0
0.0
0.0
0.0
0.0
0.0
0.0
0.0
0.0
0.0
0.0
0.0
0.0
0.0
0.0
0.0
0.0
0.0
0.0
0.0
0.0
0.0
0.0
0.0
0.0
0.0
0.0
0.0
0.0
0.0
0.0
0.0
0.0
0.0
0.0
0.0
0.0
0.0
0.0
0.0
0.0
0.0
0.0
0.0
0.0
0.0
0.0
0.0
0.0
0.0
0.0
0.0
0.0
0.0
0.0
0.0
0.0
0.0
0.0
0.0
0.0
0.0
0.0
0.0
0.0
0.0
0.0
0.0
0.0
0.0
0.0
0.0
0.0
0.0
0.0
0.0
0.0
0.0
0.0
0.0
0.0
0.0
0.0
0.0
0.0
0.0
0.0
0.0
0.0
0.0
0.0
0.0
0.0
0.0
0.0
0.0
0.0
0.0
0.0
0.0
0.0
0.0
0.0
0.0
0.0
0.0
0.0
0.0
0.0
0.0
0.0
0.0
0.0
0.0
0.0
0.0
0.0
0.0
0.0
0.0
0.0
0.0
0.0
0.0
0.0
0.0
0.0
0.0
0.0
0.0
0.0
0.0
0.0
0.0
0.0
0.0
0.0
0.0
0.0
0.0
0.0
0.0
0.0
0.0
0.0
0.0
0.0
0.0
0.0
0.0
0.0
0.0
0.0
0.0
0.0
0.0
0.0
0.0
0.0
0.0
0.0
0.0
0.0
0.0
0.0
0.0
0.0
0.0
0.0
0.0
0.0
0.0
0.0
0.0
0.0
0.0
0.0
0.0
0.0
0.0
0.0
0.0
0.0
0.0
0.0
0.0
0.0
0.0
0.0
0.0
0.0
0.0
0.0
0.0
0.0
0.0
0.0
0.0
0.0
0.0
0.0
0.0
0.0
0.0
0.0
0.0
0.0
0.0
0.0
0.0
0.0
0.0
0.0
0.0
0.0
0.0
0.0
0.0
0.0
0.0
0.0
0.0
0.0
0.0
0.0
0.0
0.0
0.0
0.0
0.0
0.0
0.0
0.0
0.0
0.0
0.0
0.0
0.0
0.0
0.0
0.0
0.0
0.0
0.0
0.0
0.0
0.0
0.0
0.0
0.0
0.0
0.0
0.0
0.0
0.0
0.0
0.0
0.0
0.0
0.0
0.0
0.0
0.0
10.0
10.0
0.0
0.0
0.0
0.0
0.0
0.0
0.0
0.0
0.0
0.0
0.0
0.0
0.0
0.0
0.0
0.0
0.0
0.0
0.0
0.0
0.0
0.0
0.0
0.0
0.0
0.0
0.0
0.0
0.0
0.0
0.0
0.0
0.0
0.0
0.0
0.0
0.0
0.0
10.0
10.0
0.0
0.0
0.0
0.0
0.0
0.0
0.0
0.0
0.0
0.0
0.0
0.0
0.0
0.0
0.0
0.0
0.0
0.0
0.0
0.0
0.0
0.0
0.0
0.0
0.0
0.0
0.0
0.0
0.0
0.0
0.0
0.0
0.0
0.0
0.0
0.0
0.0
0.0
10.0
10.0
0.0
0.0
0.0
0.0
0.0
0.0
0.0
0.0
0.0
0.0
0.0
0.0
0.0
0.0
0.0
0.0
0.0
0.0
0.0
0.0
0.0
0.0
0.0
0.0
0.0
0.0
0.0
0.0
0.0
0.0
0.0
0.0
0.0
0.0
0.0
0.0
0.0
0.0
0.0
0.0
0.0
0.0
0.0
0.0
0.0
0.0
0.0
0.0
0.0
0.0
0.0
0.0
0.0
0.0
0.0
0.0
0.0
0.0
0.0
0.0
0.0
0.0
0.0
0.0
0.0
0.0
0.0
0.0
0.0
0.0
0.0
0.0
0.0
0.0
0.0
0.0
0.0
0.0
0.0
0.0
0.0
0.0
0.0
0.0
0.0
0.0
0.0
0.0
0.0
0.0
0.0
0.0
0.0
0.0
0.0
0.0
0.0
0.0
0.0
0.0
0.0
0.0
0.0
0.0
0.0
0.0
0.0
0.0
0.0
0.0
0.0
0.0
0.0
0.0
0.0
0.0
0.0
0.0
0.0
0.0
0.0
0.0
0.0
0.0
0.0
0.0
0.0
0.0
0.0
0.0
0.0
0.0
0.0
0.0
0.0
0.0
0.0
0.0
0.0
0.0
0.0
0.0
0.0
0.0
0.0
0.0
0.0
0.0
0.0
0.0
0.0
0.0
0.0
0.0
0.0
0.0
0.0
0.0
0.0
0.0
0.0
0.0
0.0
0.0
0.0
0.0
0.0
0.0
0.0
0.0
0.0
0.0
0.0
0.0
0.0
0.0
0.0
0.0
0.0
0.0
0.0
0.0
0.0
0.0
0.0
0.0
0.0
0.0
0.0
0.0
0.0
0.0
0.0
0.0
0.0
0.0
0.0
0.0
0.0
0.0
0.0
0.0
0.0
0.0
0.0
0.0
0.0
0.0
0.0
0.0
0.0
0.0
0.0
0.0
0.0
0.0
0.0
0.0
0.0
0.0
0.0
0.0
0.0
0.0
0.0
0.0
0.0
0.0
0.0
0.0
0.0
0.0
0.0
0.0
0.0
0.0
0.0
0.0
0.0
0.0
0.0
0.0
0.0
0.0
0.0
0.0
0.0
0.0
0.0
0.0
0.0
0.0
0.0
0.0
0.0
0.0
0.0
0.0
0.0
0.0
0.0
0.0
0.0
0.0
0.0
0.0
0.0
0.0
0.0
0.0
0.0
0.0
0.0
0.0
0.0
0.0
0.0
0.0
0.0
0.0
0.0
0.0
0.0
0.0
0.0
0.0
0.0
0.0
0.0
0.0
0.0
0.0
0.0
0.0
0.0
0.0
0.0
0.0
0.0
0.0
0.0
0.0
0.0
0.0
0.0
0.0
0.0
0.0
0.0
0.0
0.0
0.0
0.0
0.0
0.0
0.0
0.0
0.0
0.0
0.0
0.0
0.0
0.0
0.0
0.0
0.0
0.0
0.0
0.0
0.0
0.0
0.0
0.0
0.0
0.0
0.0
0.0
0.0
0.0
0.0
0.0
0.0
0.0
0.0
0.0
0.0
0.0
0.0
0.0
0.0
0.0
0.0
0.0
0.0
0.0
0.0
0.0
0.0
0.0
0.0
0.0
0.0
0.0
0.0
0.0
0.0
0.0
0.0
0.0
0.0
0.0
0.0
0.0
0.0
0.0
0.0
0.0
0.0
0.0
0.0
0.0
0.0
0.0
0.0
0.0
0.0
0.0
0.0
0.0
0.0
0.0
0.0
0.0
0.0
0.0
0.0
0.0
0.0
0.0
0.0
0.0
0.0
0.0
0.0
0.0
0.0
0.0
0.0
0.0
0.0
0.0
0.0
0.0
0.0
0.0
0.0
0.0
0.0
0.0
0.0
0.0
0.0
0.0
0.0
0.0
0.0
0.0
0.0
0.0
0.0
0.0
0.0
0.0
0.0
0.0
0.0
0.0
0.0
0.0
0.0
0.0
0.0
0.0
0.0
0.0
0.0
0.0
0.0
0.0
0.0
0.0
0.0
0.0
0.0
0.0
0.0
0.0
0.0
0.0
0.0
0.0
0.0
0.0
0.0
0.0
0.0
0.0
0.0
0.0
0.0
0.0
0.0
0.0
0.0
0.0

SCALARS concentration_t1 double 1
LOOKUP_TABLE default
0.0
0.0
0.0
0.0
0.0
0.0
0.0
0.0
0.0
0.0
0.0
0.0
0.0
0.0
0.0
0.0
0.0
0.0
0.0
0.0
0.0
0.0
0.0
0.0
0.0
0.0
0.0
0.0
0.0
0.0
0.0
0.0
0.0
0.0
0.0
0.0
0.0
0.0
0.0
0.0
0.0
2.3282381415398783e-08
2.3764545396607224e-07
1.241345042749788e-06
2.011035605756739e-06
1.4484632318270814e-06
5.954928386729099e-07
1.5726983272401004e-07
2.8312490528843108e-08
3.5706804202610703e-09
3.17012550786063e-10
1.9483286780038953e-11
7.913920939657527e-13
1.9156083309451083e-14
2.0962545310725445e-16
0.0
0.0
0.0
0.0
0.0
0.0
0.0
0.0
0.0
0.0
0.0
0.0
0.0
0.0
0.0
0.0
0.0
0.0
0.0
0.0
0.0
0.0
0.0
0.0
0.0
0.0
2.665918814841318e-07
2.4954298775488013e-06
1.2213707500285665e-05
2.0224893955478356e-05
1.5539340922681743e-05
6.96613851993934e-06
2.0420999875509945e-06
4.157531105111753e-07
6.06434054363024e-08
6.413140286791356e-09
4.895127281395237e-10
2.636127437568531e-11
9.523430952133693e-13
2.0750835513624222e-14
2.0644930987835667e-16
0.0
0.0
0.0
0.0
0.0
0.0
0.0
0.0
0.0
0.0
0.0
0.0
0.0
0.0
0.0
0.0
0.0
0.0
0.0
0.0
0.0
0.0
0.0
0.0
0.0
2.490757242964712e-06
2.1602028313804596e-05
9.987154420911792e-05
0.00016863809755086464
0.00013724059566810475
6.644994506572177e-05
2.1360707017212244e-05
4.841790295677122e-06
8.001317292913737e-07
9.797333068173516e-08
8.913686277446819e-09
5.963851840233536e-10
2.856809789114453e-11
9.289713665578272e-13
1.8398181857675112e-14
1.6774006427616485e-16
0.0
0.0
0.0
0.0
0.0
0.0
0.0
0.0
0.0
0.0
0.0
0.0
0.0
0.0
0.0
0.0
0.0
0.0
0.0
0.0
0.0
0.0
0.0
0.0
1.908740805861225e-05
0.00015486319848980671
0.0006814887785486492
0.0011705749945254802
0.001002186328834284
0.0005194545889644071
0.00018112388006372946
4.510248674210645e-05
8.304389319533033e-06
1.1522310337661733e-06
1.2136563265148392e-07
9.676013052033208e-09
5.756435139085062e-10
2.480952690721546e-11
7.32960019101475e-13
1.3296894678558481e-14
1.1182670951744322e-16
0.0
0.0
0.0
0.0
0.0
0.0
0.0
0.0
0.0
0.0
0.0
0.0
0.0
0.0
0.0
0.0
0.0
0.0
0.0
0.0
0.0
0.0
0.0
0.00011971508779453804
0.0009163250208461117
0.0038638078129941958
0.006736458941064903
0.006030898779510541
0.0033202059698056426
0.001243958044653633
0.0003364832885282027
6.808815227740022e-05
1.0524168171938722e-05
1.2555560232127007e-06
1.1581941421979325e-07
8.204874762659184e-09
4.388608228354033e-10
1.7171918162367818e-11
4.643797725443354e-13
7.765840788285568e-15
6.057280098861507e-17
0.0
0.0
0.0
0.0
0.0
0.0
0.0
0.0
0.0
0.0
0.0
0.0
0.0
0.0
0.0
0.0
0.0
0.0
0.0
0.0
0.0
0.0
0.0006111971107383469
0.00444726633578422
0.018075926020654998
0.031923952685877666
0.029721407966181043
0.017255451786070856
0.006887878529098192
0.0020037456011855947
0.00044037909358041443
7.475811910167936e-05
9.926176124478452e-06
1.0359612890067034e-06
8.481446105469436e-08
5.3955858573066215e-09
2.617012095063834e-10
9.36250357937212e-12
2.331412869492341e-13
3.612347322290835e-15
2.62482137617332e-17
0.0
0.0
0.0
0.0
0.0
0.0
0.0
0.0
0.0
0.0
0.0
0.0
0.0
0.0
0.0
0.0
0.0
0.0
0.0
0.0
0.0
0.002518029723172267
0.01754267544976835
0.06910921980642086
0.1234029332404245
0.1188483407355027
0.07226824394779362
0.030487390137322164
0.00945003393827695
0.0022316227970580584
0.00041086920001199125
5.981234931457495e-05
6.934357038753363e-06
6.410518646073605e-07
4.703620091318636e-08
2.7080490475148133e-09
1.1986298154401753e-10
3.941378717442315e-12
9.077859573641171e-14
1.308241049963051e-15
8.886114033920095e-18
0.0
0.0
0.0
0.0
0.0
0.0
0.0
0.0
0.0
0.0
0.0
0.0
0.0
0.0
0.0
0.0
0.0
0.0
0.0
0.0
0.008271069592835913
0.05556265080766354
0.21328642468491957
0.384342450492823
0.38089780468813844
0.24090652515009764
0.1065372098420983
0.03486118050955921
0.008753105444903422
0.0017269530100390638
0.0002718352533483353
3.444164431826892e-05
3.525120897261094e-06
2.910728647197441e-07
1.9263122382071632e-08
1.0087100018217823e-09
4.0904370992630504e-11
1.2402330269416122e-12
2.649230171450315e-14
3.5595093917858953e-16
2.2650878909992396e-18
0.0
0.0
0.0
0.0
0.0
0.0
0.0
0.0
0.0
0.0
0.0
0.0
0.0
0.0
0.0
0.0
0.0
0.0
0.0
0.02133811512568513
0.1392323582331015
0.5235990853166387
0.9503775093280619
0.9637926198300634
0.6293225936428235
0.28919898596587956
0.09891026646490511
0.026111942826350328
0.0054518402192662
0.0009148544349322851
0.00012464271309973226
1.3861445632554033e-05
1.2596513404324822e-06
9.32454377057755e-08
5.578477840389283e-09
2.6600899690226494e-10
9.887635554029146e-12
2.7645682282968457e-13
5.476128879900316e-15
6.859165892144832e-17
4.0897420254152937e-19
0.0
0.0
0.0
0.0
0.0
0.0
0.0
0.0
0.0
0.0
0.0
0.0
0.0
0.0
0.0
0.0
0.0
0.0
0.04252367613155227
0.2716568301122657
1.0065411466611156
1.836533683715646
1.8941100576717995
1.2661838212177918
0.5986171997267736
0.21156370474597522
0.05797519631652413
0.012626686235364134
0.002222718805162648
0.0003197833996645761
3.78532574686036e-05
3.6972805027883365e-06
2.9778372155042573e-07
1.968988082207359e-08
1.059485125724222e-09
4.572730394245825e-11
1.547568293071006e-12
3.962499957941667e-14
7.229503061823431e-16
8.390137155703267e-18
4.663740906175334e-20
0.0
0.0
0.0
0.0
0.0
0.0
0.0
0.0
0.0
0.0
0.0
0.0
0.0
0.0
0.0
0.0
0.0
0.06452090712154807
0.4070462540954107
1.4950044550904455
2.736228527122387
2.850485844914834
1.9324018804533656
0.929184629487428
0.3348706604607522
0.09382247018518927
0.020952327536645714
0.003794311055608606
0.0005637592852973177
6.924201077235812e-05
7.058409671665475e-06
5.977186293590369e-07
4.195626743059962e-08
2.427812223600692e-09
1.147151914968248e-10
4.360959653506921e-12
1.3040659812026707e-13
2.9613318268040677e-15
4.8156059984916194e-17
5.015707602688255e-19
2.5261929908449724e-21
0.0
0.0
0.0
0.0
0.0
0.0
0.0
0.0
0.0
0.0
0.0
0.0
0.0
0.0
0.0
0.0
0.0740691658098437
0.4654798433418166
1.704950034703812
3.1234963517103016
3.2640893740667525
2.2223186235205556
1.0740372415380415
0.389289898871637
0.10975260708532572
0.024675126465633114
0.0045004758435537385
0.000673685667322304
8.337764516884086e-05
8.564167220874639e-06
7.304771127967522e-07
5.1599517889288794e-08
2.9996667003240567e-09
1.4199107183205922e-10
5.383362347255502e-12
1.5944417699309564e-13
3.5493639030345135e-15
5.572824873553637e-17
5.482081693305786e-19
2.5261929908449724e-21
0.0
0.0
0.0
0.0
0.0
0.0
0.0
0.0
0.0
0.0
0.0
0.0
0.0
0.0
0.0
0.0
0.06452090712154807
0.4070462540954107
1.4950044550904455
2.736228527122387
2.850485844914834
1.9324018804533656
0.929184629487428
0.3348706604607522
0.09382247018518927
0.020952327536645714
0.003794311055608606
0.0005637592852973177
6.924201077235812e-05
7.058409671665475e-06
5.977186293590369e-07
4.195626743059962e-08
2.427812223600692e-09
1.147151914968248e-10
4.360959653506921e-12
1.3040659812026707e-13
2.9613318268040677e-15
4.8156059984916194e-17
5.015707602688255e-19
2.5261929908449724e-21
0.0
0.0
0.0
0.0
0.0
0.0
0.0
0.0
0.0
0.0
0.0
0.0
0.0
0.0
0.0
0.0
0.04252367613155227
0.2716568301122657
1.0065411466611156
1.836533683715646
1.8941100576717995
1.2661838212177918
0.5986171997267736
0.21156370474597522
0.05797519631652413
0.012626686235364134
0.002222718805162648
0.0003197833996645761
3.78532574686036e-05
3.6972805027883365e-06
2.9778372155042573e-07
1.968988082207359e-08
1.059485125724222e-09
4.572730394245825e-11
1.547568293071006e-12
3.962499957941667e-14
7.229503061823431e-16
8.390137155703267e-18
4.663740906175334e-20
0.0
0.0
0.0
0.0
0.0
0.0
0.0
0.0
0.0
0.0
0.0
0.0
0.0
0.0
0.0
0.0
0.0
0.02133811512568513
0.1392323582331015
0.5235990853166387
0.9503775093280619
0.9637926198300634
0.6293225936428235
0.28919898596587956
0.09891026646490511
0.026111942826350328
0.0054518402192662
0.0009148544349322851
0.00012464271309973226
1.3861445632554033e-05
1.2596513404324822e-06
9.32454377057755e-08
5.578477840389283e-09
2.6600899690226494e-10
9.887635554029146e-12
2.7645682282968457e-13
5.476128879900316e-15
6.859165892144832e-17
4.0897420254152937e-19
0.0
0.0
0.0
0.0
0.0
0.0
0.0
0.0
0.0
0.0
0.0
0.0
0.0
0.0
0.0
0.0
0.0
0.0
0.008271069592835913
0.05556265080766354
0.21328642468491957
0.384342450492823
0.38089780468813844
0.24090652515009764
0.1065372098420983
0.03486118050955921
0.008753105444903422
0.0017269530100390638
0.0002718352533483353
3.444164431826892e-05
3.525120897261094e-06
2.910728647197441e-07
1.9263122382071632e-08
1.0087100018217823e-09
4.0904370992630504e-11
1.2402330269416122e-12
2.649230171450315e-14
3.5595093917858953e-16
2.2650878909992396e-18
0.0
0.0
0.0
0.0
0.0
0.0
0.0
0.0
0.0
0.0
0.0
0.0
0.0
0.0
0.0
0.0
0.0
0.0
0.0
0.002518029723172267
0.01754267544976835
0.06910921980642086
0.1234029332404245
0.1188483407355027
0.07226824394779362
0.030487390137322164
0.00945003393827695
0.0022316227970580584
0.00041086920001199125
5.981234931457495e-05
6.934357038753363e-06
6.410518646073605e-07
4.703620091318636e-08
2.7080490475148133e-09
1.1986298154401753e-10
3.941378717442315e-12
9.077859573641171e-14
1.308241049963051e-15
8.886114033920095e-18
0.0
0.0
0.0
0.0
0.0
0.0
0.0
0.0
0.0
0.0
0.0
0.0
0.0
0.0
0.0
0.0
0.0
0.0
0.0
0.0
0.0006111971107383469
0.00444726633578422
0.018075926020654998
0.031923952685877666
0.029721407966181043
0.017255451786070856
0.006887878529098192
0.0020037456011855947
0.00044037909358041443
7.475811910167936e-05
9.926176124478452e-06
1.0359612890067034e-06
8.481446105469436e-08
5.3955858573066215e-09
2.617012095063834e-10
9.36250357937212e-12
2.331412869492341e-13
3.612347322290835e-15
2.62482137617332e-17
0.0
0.0
0.0
0.0
0.0
0.0
0.0
0.0
0.0
0.0
0.0
0.0
0.0
0.0
0.0
0.0
0.0
0.0
0.0
0.0
0.0
0.00011971508779453804
0.0009163250208461117
0.0038638078129941958
0.006736458941064903
0.006030898779510541
0.0033202059698056426
0.001243958044653633
0.0003364832885282027
6.808815227740022e-05
1.0524168171938722e-05
1.2555560232127007e-06
1.1581941421979325e-07
8.204874762659184e-09
4.388608228354033e-10
1.7171918162367818e-11
4.643797725443354e-13
7.765840788285568e-15
6.057280098861507e-17
0.0
0.0
0.0
0.0
0.0
0.0
0.0
0.0
0.0
0.0
0.0
0.0
0.0
0.0
0.0
0.0
0.0
0.0
0.0
0.0
0.0
0.0
1.908740805861225e-05
0.00015486319848980671
0.0006814887785486492
0.0011705749945254802
0.001002186328834284
0.0005194545889644071
0.00018112388006372946
4.510248674210645e-05
8.304389319533033e-06
1.1522310337661733e-06
1.2136563265148392e-07
9.676013052033208e-09
5.756435139085062e-10
2.480952690721546e-11
7.32960019101475e-13
1.3296894678558481e-14
1.1182670951744322e-16
0.0
0.0
0.0
0.0
0.0
0.0
0.0
0.0
0.0
0.0
0.0
0.0
0.0
0.0
0.0
0.0
0.0
0.0
0.0
0.0
0.0
0.0
0.0
2.490757242964712e-06
2.1602028313804596e-05
9.987154420911792e-05
0.00016863809755086464
0.00013724059566810475
6.644994506572177e-05
2.1360707017212244e-05
4.841790295677122e-06
8.001317292913737e-07
9.797333068173516e-08
8.913686277446819e-09
5.963851840233536e-10
2.856809789114453e-11
9.289713665578272e-13
1.8398181857675112e-14
1.6774006427616485e-16
0.0
0.0
0.0
0.0
0.0
0.0
0.0
0.0
0.0
0.0
0.0
0.0
0.0
0.0
0.0
0.0
0.0
0.0
0.0
0.0
0.0
0.0
0.0
0.0
2.665918814841318e-07
2.4954298775488013e-06
1.2213707500285665e-05
2.0224893955478356e-05
1.5539340922681743e-05
6.96613851993934e-06
2.0420999875509945e-06
4.157531105111753e-07
6.06434054363024e-08
6.413140286791356e-09
4.895127281395237e-10
2.636127437568531e-11
9.523430952133693e-13
2.0750835513624222e-14
2.0644930987835667e-16
0.0
0.0
0.0
0.0
0.0
0.0
0.0
0.0
0.0
0.0
0.0
0.0
0.0
0.0
0.0
0.0
0.0
0.0
0.0
0.0
0.0
0.0
0.0
0.0
0.0
2.3282381415398783e-08
2.3764545396607224e-07
1.241345042749788e-06
2.011035605756739e-06
1.4484632318270814e-06
5.954928386729099e-07
1.5726983272401004e-07
2.8312490528843108e-08
3.5706804202610703e-09
3.17012550786063e-10
1.9483286780038953e-11
7.913920939657527e-13
1.9156083309451083e-14
2.0962545310725445e-16
0.0
0.0
0.0
0.0
0.0
0.0
0.0
0.0
0.0
0.0
0.0
0.0
0.0
0.0
0.0
0.0
0.0
0.0
0.0
0.0
0.0
0.0
0.0
0.0
0.0
0.0
0.0
0.0
0.0
0.0
0.0
0.0
0.0
0.0
0.0
0.0
0.0
0.0
0.0
0.0
0.0
0.0
0.0
0.0
0.0
0.0
0.0
0.0
0.0
0.0
0.0
0.0
0.0
0.0
0.0
0.0
0.0
0.0
0.0
0.0
0.0
0.0
0.0
0.0
0.0

SCALARS concentration_t2 double 1
LOOKUP_TABLE default
0.0
0.0
0.0
0.0
0.0
0.0
0.0
0.0
0.0
0.0
0.0
0.0
0.0
0.0
0.0
0.0
0.0
0.0
0.0
0.0
0.0
0.0
0.0
0.0
0.0
0.0
0.0
0.0
0.0
0.0
0.0
0.0
0.0
0.0
0.0
0.0
0.0
0.0
0.0
0.0
0.0
1.0280132929105514e-05
4.7595711261347915e-05
0.00014121158948638248
0.000278824113570392
0.0003802229492904854
0.0003772560731558795
0.0002851792424468966
0.00017025947353312596
8.251150075165803e-05
3.31437860373433e-05
1.1213907880156381e-05
3.235921569360218e-06
8.041751333687191e-07
1.734229097799473e-07
3.264413610211051e-08
5.387193167574984e-09
7.819142369775963e-10
1.0002290710474318e-10
1.1288807713057056e-11
1.1242040795464582e-12
9.869696559318012e-14
7.624081347832223e-15
5.166129782006156e-16
3.057300755988314e-17
1.5708203964404642e-18
6.951854544382826e-20
2.62254092138779e-21
8.316481668235826e-23
2.175327437039457e-24
4.569990642299872e-26
7.413221037766617e-28
8.716687593688365e-30
6.6120779335889e-32
2.4295953593702315e-34
0.0
0.0
0.0
0.0
0.0
0.0
4.280581704161276e-05
0.00019607751543598278
0.000577693142924174
0.0011436455451033815
0.0015761618982998936
0.00158922727178804
0.0012256093903289286
0.0007487676445834152
0.0003722789413500025
0.00015377723979053716
5.3624405411395955e-05
1.598451933663871e-05
4.112989002125129e-06
9.206162697224064e-07
1.803320245966533e-07
3.105599274782173e-08
4.718312583927226e-09
6.339195879756771e-10
7.542447365134293e-11
7.951597798969065e-12
7.42520028723047e-13
6.133732183903621e-14
4.472297631501941e-15
2.8686516817733865e-16
1.6112638396400385e-17
7.876455835664378e-19
3.324031818451662e-20
1.198299640427788e-21
3.638497577826854e-23
9.129690159885323e-25
1.8431476933856212e-26
2.877991453427132e-28
3.262572368103931e-30
2.389620515024949e-32
8.490521417154038e-35
0.0
0.0
0.0
0.0
0.0
0.00015273135506945905
0.0006922369367542772
0.00202545130354922
0.004020265837983066
0.005600130610196656
0.0057389636047186195
0.004516027056919957
0.0028236711771827774
0.0014404069200616978
0.0006118314000715354
0.000219860426268419
6.767672730661456e-05
1.8021001918465084e-05
4.183555087803375e-06
8.519314714274975e-07
1.529095319500927e-07
2.427818319122575e-08
3.418983781313707e-09
4.277934101975215e-10
4.7601420192686083e-11
4.710795223994717e-12
4.1432545457680937e-13
3.233514858045406e-14
2.2335824314852332e-15
1.3607336196443934e-16
7.276132163832581e-18
3.393448586755592e-19
1.3690613787260817e-20
4.726964755520532e-22
1.377076642277357e-23
3.320664732620422e-25
6.45260520739658e-27
9.711961930624355e-29
1.0627328073660513e-30
7.523397961981336e-33
2.586955744289122e-35
0.0
0.0
0.0
0.0
0.000484538428019877
0.002175300095581077
0.006325457085362203
0.01258531198783525
0.01770317824799927
0.018415043228762303
0.014762988561550694
0.009430367868837372
0.004926158420397524
0.0021471695425467397
0.0007933135845800995
0.0002515582390361465
6.914003636674483e-05
1.6600809228136286e-05
3.5038950795173902e-06
6.533356922832705e-07
1.080300605455105e-07
1.588613589474861e-08
2.081746873984087e-09
2.433893777664587e-10
2.5400424059074658e-11
2.3655112032024313e-12
1.9638220009495242e-13
1.4506707329120348e-14
9.508968670608188e-16
5.5101039586813025e-17
2.808571971686549e-18
1.2511300788970895e-19
4.830379260425793e-21
1.5988533391971203e-22
4.4727952108182344e-24
1.037356907331098e-25
1.9416614434150156e-27
2.8190495940595696e-29
2.9796939745745083e-31
2.04024903002095e-33
6.794025187021937e-36
0.0
0.0
0.0
0.0013635644981676931
0.0060704277141155685
0.017555843615622402
0.035004544561745614
0.04967319910953114
0.052371551394451835
0.04269819021211315
0.02780980457607893
0.014843776679027103
0.006623702491287261
0.002509930749070693
0.000817726111060056
0.00023132954315258303
5.727563538565607e-05
1.2490501069564517e-05
2.4113352146888188e-06
4.1374356234821975e-07
6.328868258440614e-08
8.649897903173073e-09
1.0578658099586924e-09
1.1585758144995463e-10
1.1364120534663201e-11
9.977223710229702e-13
7.83033470108631e-14
5.482094204908717e-15
3.413755071956417e-16
1.8833422604306002e-17
9.158234785947638e-19
3.8995715652744106e-20
1.441675591271852e-21
4.577292945835648e-23
1.2302634027530734e-24
2.745613233783726e-26
4.952465120900858e-28
6.939162267751047e-30
7.08810004665338e-32
4.696484393183719e-34
1.5153340490661672e-36
0.0
0.0
0.003388759980202309
0.01497677387340092
0.04310900444307085
0.08611753600063046
0.12315565043146404
0.13140701626026227
0.10875274827949917
0.07206958109243611
0.039216439885224406
0.017871039428534654
0.006927048942424089
0.0023122321332861074
0.0006712735761730623
0.000170850098968754
3.836818462337446e-05
7.642110278287045e-06
1.3555956504080817e-06
2.1484231072071283e-07
3.049560763082457e-08
3.8835456138263845e-09
4.4417268720490244e-10
4.5644795022531165e-11
4.213647479326377e-12
3.4912899972825055e-13
2.592468016667715e-14
1.7213055632103777e-15
1.018764648050428e-16
5.3529397680162184e-18
2.483912934006564e-19
1.011109988016045e-20
3.5798358140272326e-22
1.0902913450643392e-23
2.8155692667698735e-25
6.046630346488744e-27
1.051120042468751e-28
1.421437598282949e-30
1.4033246481010184e-32
8.99939303041613e-35
0.0
0.0
0.007402225336272078
0.03251254514111053
0.09320975182886224
0.1865061910593128
0.2685097020928794
0.28948215745845896
0.242716395615385
0.16329166087155084
0.09036152462395221
0.041941077742301554
0.01658234005666113
0.0056540466124116295
0.0016791452396816796
0.00043784138283255224
0.00010089532511900991
2.0655718619490416e-05
3.7728291113261237e-06
6.168985291809323e-07
9.053381972559481e-08
1.1947935816670732e-08
1.4197834485484205e-09
1.5202097745022373e-10
1.4668693205230355e-11
1.2749351580416066e-12
9.970897008255151e-14
7.004712099691531e-15
4.4096796713217957e-16
2.479604480631498e-17
1.2402241598743062e-18
5.4883714740573e-20
2.134380128178004e-21
7.231734504762612e-23
2.1112792355497434e-24
5.234718721528666e-26
1.0810638126686506e-27
1.8099961146097342e-29
2.3610759133000188e-31
2.2519560716968702e-33
0.0
0.0
0.014143691205281006
0.061807493226426174
0.17661377632781763
0.3538731419147381
0.5123141682702068
0.5571374464421344
0.4722651795546314
0.3217821049538714
0.18060675170682056
0.08513688572878308
0.03422912354425883
0.011882746063345568
0.003597462956215299
0.0009574986105520192
0.00022552656644659445
4.726097697375262e-05
8.849989424979454e-06
1.4860597066983014e-06
2.2437783787505607e-07
3.052708499453576e-08
3.748042111691778e-09
4.1566849833615154e-10
4.165721860872097e-11
3.7720770845046184e-12
3.0841086977780573e-13
2.274062053187356e-14
1.5093693100889721e-15
8.995134148744003e-17
4.7972677229447355e-18
2.2798395681100614e-19
9.602751601284484e-21
3.5604811965924805e-22
1.1520953107212509e-23
3.2174997446158393e-25
7.643813313683582e-27
1.5150705149293937e-28
2.4386704976570503e-30
3.06348130023348e-32
0.0
0.0
0.02353244338330419
0.102427906355194
0.2919366861155811
0.5855714134472247
0.8515002681351803
0.9323890563977836
0.7972507688539481
0.5487331570071101
0.3114884529435879
0.14866212338983462
0.06057516279598163
0.021333765905344946
0.006559057709946492
0.0017747485631248584
0.000425435649862138
9.084321318227547e-05
1.735568532914935e-05
2.977468321736911e-06
4.6000301227383957e-07
6.414435069064807e-08
8.08663266883934e-09
9.227545455439484e-10
9.536600852809878e-11
8.928065834721268e-12
7.568887025431713e-13
5.80566787529526e-14
4.023637921408957e-15
2.514650117405164e-16
1.4134682690886922e-17
7.121469338716009e-19
3.202270897660039e-20
1.278198635693912e-21
4.4981146896355116e-23
1.3835948113022728e-24
3.6790531876664203e-26
8.335877338834228e-28
1.5785633677506034e-29
2.432039565143473e-31
0.0
0.0
0.03395835691440918
0.14738728137619156
0.41930847060963555
0.8417131446557674
1.2278802083740257
1.3512464766891752
1.1627187984734457
0.8061859517638325
0.4614145742334013
0.22221229589450167
0.09143370346672718
0.032542034670551445
0.01011837885682892
0.0027710097173039294
0.0006728602515975117
0.00014566508233310698
2.8241549196327185e-05
4.921809326362472e-06
7.73317546459939e-07
1.0980255581704745e-07
1.4114734314789153e-08
1.6447607184664145e-09
1.7388427150840486e-10
1.6684181787568598e-11
1.4527814559073437e-12
1.1473914387652464e-13
8.211019323685471e-15
5.316099947336863e-16
3.107363599500047e-17
1.635347445080127e-18
7.722226099866951e-20
3.2576362766974593e-21
1.2210539904477408e-22
4.0391831641205105e-24
1.1691386102495656e-25
2.9289334346788843e-27
6.260988012314072e-29
1.1203782870242728e-30
0.0
0.0
0.042370883721713916
0.18358481938092316
0.5217133035535193
1.047774684653809
1.531436845673397
1.690403007481227
1.4601377398251778
1.0169355620482046
0.5849532261356576
0.28325586525737495
0.11724564948265946
0.041996268477480156
0.013147753073675236
0.003627101106425481
0.0008876563661056897
0.00019377842706457153
3.790682436828727e-05
6.669636615619668e-06
1.0587111975956602e-06
1.519834287356279e-07
1.9768569445478325e-08
2.3330104250245215e-09
2.500476845895211e-10
2.4350365339958962e-11
2.1547169486988633e-12
1.7318735204184546e-13
1.2633704293489147e-14
8.353705450868651e-16
4.9979108083697e-17
2.6992554698035802e-18
1.3120694987314911e-19
5.719001498696579e-21
2.225098489562265e-22
7.684197479085876e-24
2.339087214239248e-25
6.2219796453910715e-27
1.430506747424392e-28
2.8027062907129702e-30
0.0
0.0
0.04562473191898252
0.19757019607261178
0.5612509377128135
1.12735806409198
1.6488224876767366
1.8218160819728584
1.5756700302580602
1.099042635669316
0.6332422598277544
0.30720298925835393
0.1274111551002111
0.04573524311227021
0.014351179789272197
0.003968806363418451
0.0009738251938607209
0.0002131834021104976
4.182714603433532e-05
7.3828291104097986e-06
1.1759032960516467e-06
1.694200925712988e-07
2.212217573140167e-08
2.6216303990230673e-09
2.822328858869131e-10
2.761582495114459e-11
2.456169769093031e-12
1.9849863189414043e-13
1.45650309732264e-14
9.691068511136602e-16
5.836700706312456e-17
3.1745294937262437e-18
1.554545582095841e-19
6.828121531891823e-21
2.6775127957971106e-22
9.318716257267312e-24
2.8576339398318593e-25
7.650574619255963e-27
1.7673647554905746e-28
3.469384961256021e-30
0.0
0.0
0.042370883721713916
0.18358481938092316
0.5217133035535193
1.047774684653809
1.531436845673397
1.690403007481227
1.4601377398251778
1.0169355620482046
0.5849532261356576
0.28325586525737495
0.11724564948265946
0.041996268477480156
0.013147753073675236
0.003627101106425481
0.0008876563661056897
0.00019377842706457153
3.790682436828727e-05
6.669636615619668e-06
1.0587111975956602e-06
1.519834287356279e-07
1.9768569445478325e-08
2.3330104250245215e-09
2.500476845895211e-10
2.4350365339958962e-11
2.1547169486988633e-12
1.7318735204184546e-13
1.2633704293489147e-14
8.353705450868651e-16
4.9979108083697e-17
2.6992554698035802e-18
1.3120694987314911e-19
5.719001498696579e-21
2.225098489562265e-22
7.684197479085876e-24
2.339087214239248e-25
6.2219796453910715e-27
1.430506747424392e-28
2.8027062907129702e-30
0.0
0.0
0.03395835691440918
0.14738728137619156
0.41930847060963555
0.8417131446557674
1.2278802083740257
1.3512464766891752
1.1627187984734457
0.8061859517638325
0.4614145742334013
0.22221229589450167
0.09143370346672718
0.032542034670551445
0.01011837885682892
0.0027710097173039294
0.0006728602515975117
0.00014566508233310698
2.8241549196327185e-05
4.921809326362472e-06
7.73317546459939e-07
1.0980255581704745e-07
1.4114734314789153e-08
1.6447607184664145e-09
1.7388427150840486e-10
1.6684181787568598e-11
1.4527814559073437e-12
1.1473914387652464e-13
8.211019323685471e-15
5.316099947336863e-16
3.107363599500047e-17
1.635347445080127e-18
7.722226099866951e-20
3.2576362766974593e-21
1.2210539904477408e-22
4.0391831641205105e-24
1.1691386102495656e-25
2.9289334346788843e-27
6.260988012314072e-29
1.1203782870242728e-30
0.0
0.0
0.02353244338330419
0.102427906355194
0.2919366861155811
0.5855714134472247
0.8515002681351803
0.9323890563977836
0.7972507688539481
0.5487331570071101
0.3114884529435879
0.14866212338983462
0.06057516279598163
0.021333765905344946
0.006559057709946492
0.0017747485631248584
0.000425435649862138
9.084321318227547e-05
1.735568532914935e-05
2.977468321736911e-06
4.6000301227383957e-07
6.414435069064807e-08
8.08663266883934e-09
9.227545455439484e-10
9.536600852809878e-11
8.928065834721268e-12
7.568887025431713e-13
5.80566787529526e-14
4.023637921408957e-15
2.514650117405164e-16
1.4134682690886922e-17
7.121469338716009e-19
3.202270897660039e-20
1.278198635693912e-21
4.4981146896355116e-23
1.3835948113022728e-24
3.6790531876664203e-26
8.335877338834228e-28
1.5785633677506034e-29
2.432039565143473e-31
0.0
0.0
0.014143691205281006
0.061807493226426174
0.17661377632781763
0.3538731419147381
0.5123141682702068
0.5571374464421344
0.4722651795546314
0.3217821049538714
0.18060675170682056
0.08513688572878308
0.03422912354425883
0.011882746063345568
0.003597462956215299
0.0009574986105520192
0.00022552656644659445
4.726097697375262e-05
8.849989424979454e-06
1.4860597066983014e-06
2.2437783787505607e-07
3.052708499453576e-08
3.748042111691778e-09
4.1566849833615154e-10
4.165721860872097e-11
3.7720770845046184e-12
3.0841086977780573e-13
2.274062053187356e-14
1.5093693100889721e-15
8.995134148744003e-17
4.7972677229447355e-18
2.2798395681100614e-19
9.602751601284484e-21
3.5604811965924805e-22
1.1520953107212509e-23
3.2174997446158393e-25
7.643813313683582e-27
1.5150705149293937e-28
2.4386704976570503e-30
3.06348130023348e-32
0.0
0.0
0.007402225336272078
0.03251254514111053
0.09320975182886224
0.1865061910593128
0.2685097020928794
0.28948215745845896
0.242716395615385
0.16329166087155084
0.09036152462395221
0.041941077742301554
0.01658234005666113
0.0056540466124116295
0.0016791452396816796
0.00043784138283255224
0.00010089532511900991
2.0655718619490416e-05
3.7728291113261237e-06
6.168985291809323e-07
9.053381972559481e-08
1.1947935816670732e-08
1.4197834485484205e-09
1.5202097745022373e-10
1.4668693205230355e-11
1.2749351580416066e-12
9.970897008255151e-14
7.004712099691531e-15
4.4096796713217957e-16